no.material,composition,T (C),Al,Co,Cr,Cu,Fe,Hf,Mn,Mo,Nb,Ni,Si,Ta,Ti,V,W,Zr,mass_change,trend if not parabolic,category,if extrapolated,citation
110,10Al-20Co-20Cr-20Fe-20Ni-10Ti,900,10,20,20,0,20,0,0,0,0,20,0,0,10,0,0,0,0.938028169,,HEA,,"S. Wang, Z. Chen, P. Zhang, K. Zhang, C. L. Chen, and B. L. Shen, “Influence of Al content on high temperature oxidation behavior of AlxCoCrFeNiTi0.5 high entropy alloys,” Vacuum, vol. 163, pp. 263–268, May 2019."
110,10Al-20Co-20Cr-20Fe-20Ni-10Ti,1100,10,20,20,0,20,0,0,0,0,20,0,0,10,0,0,0,2.011267606,,HEA,,"S. Wang, Z. Chen, P. Zhang, K. Zhang, C. L. Chen, and B. L. Shen, “Influence of Al content on high temperature oxidation behavior of AlxCoCrFeNiTi0.5 high entropy alloys,” Vacuum, vol. 163, pp. 263–268, May 2019."
111,IN718,900,1.28,0,21.03,0,19.01,0,0.21,1.8,3.22,52.09,0.41,0,0.96,0,0,0,0.631923224,,ref-super,,"G. A. Greene and C. C. Finfrock, “Oxidation of Inconel 718 in Air at High Temperatures,” Oxid. Met. 2001 555, vol. 55, no. 5, pp. 505–521, 2001."
111,IN718,1000,1.28,0,21.03,0,19.01,0,0.21,1.8,3.22,52.09,0.41,0,0.96,0,0,0,1.819879777,,ref-super,,"G. A. Greene and C. C. Finfrock, “Oxidation of Inconel 718 in Air at High Temperatures,” Oxid. Met. 2001 555, vol. 55, no. 5, pp. 505–521, 2001."
111,IN718,1100,1.28,0,21.03,0,19.01,0,0.21,1.8,3.22,52.09,0.41,0,0.96,0,0,0,2.622964128,,ref-super,,"G. A. Greene and C. C. Finfrock, “Oxidation of Inconel 718 in Air at High Temperatures,” Oxid. Met. 2001 555, vol. 55, no. 5, pp. 505–521, 2001."
111,IN718,1200,1.28,0,21.03,0,19.01,0,0.21,1.8,3.22,52.09,0.41,0,0.96,0,0,0,3.734043621,,ref-super,,"G. A. Greene and C. C. Finfrock, “Oxidation of Inconel 718 in Air at High Temperatures,” Oxid. Met. 2001 555, vol. 55, no. 5, pp. 505–521, 2001."