,Al,Co,Cr,Cu,Fe,Hf,Mn,Mo,Nb,Ni,Si,Ta,Ti,V,W,Zr,T (C),freeze_range,literature,mass_change,max_phase,max_phase_fraction,solidus,composition
265,0,0,15,0,0,0,45,0,0,0,30,0,10,0,0,0,1000,768.6040154,False,9.461380226,M5SI3_D88#2,0.297147403,966.8909925,Mn45 Si30 Cr15 Ti10 
266,20,10,20,0,0,40,0,0,0,0,0,10,0,0,0,0,1000,391.30952,False,1.916360002,C14_LAVES,0.519353373,1180.699818,Hf40 Al20 Cr20 Co10 Ta10 
267,0,0,25,40,0,15,0,0,5,0,0,0,0,0,0,15,1000,875.2008057,False,11.71969893,CU8HF3,0.422436572,760.7124933,Cu40 Cr25 Hf15 Zr15 Nb5 
268,0,0,10,35,0,0,0,0,0,0,0,0,25,0,0,30,1000,395.366974,False,34.0842492,CU2TIZR,0.373322914,836.4531891,Cu35 Zr30 Ti25 Cr10 
269,0,20,15,0,0,30,0,0,0,0,0,0,30,5,0,0,1000,187.500261,False,20.33907297,NITI2,0.556188697,1147.50888,Hf30 Ti30 Co20 Cr15 V5 
271,0,30,0,15,0,0,10,0,0,0,45,0,0,0,0,0,1000,538.4170626,False,71.00471159,FESI_B20,0.792155957,838.2580195,Si45 Co30 Cu15 Mn10 
272,35,0,10,20,0,0,0,0,0,0,0,0,0,35,0,0,1000,593.8904489,False,1.652661733,BCC_B2,0.692004964,1012.414212,Al35 V35 Cu20 Cr10 
273,10,0,25,0,0,0,0,0,0,0,45,0,10,10,0,0,1000,643.175825,False,12.71512689,M6SI5#2,0.60155132,971.6461867,Si45 Cr25 Al10 Ti10 V10 
275,0,0,0,15,0,15,0,0,40,0,0,0,0,15,0,15,1000,1042.213372,False,57.57135193,BCC_B2,0.556489754,773.4689881,Nb40 Cu15 Hf15 V15 Zr15 
276,0,35,0,0,0,10,0,0,0,0,0,0,0,15,0,40,1000,379.4080756,False,32.10400772,BCC_B2#2,0.325367237,969.025082,Zr40 Co35 V15 Hf10 
277,0,15,0,35,30,0,0,0,0,0,10,0,0,10,0,0,1000,159.1679318,False,52.80936667,BCC_B2#2,0.660833865,1038.503774,Cu35 Fe30 Co15 Si10 V10 
278,15,0,0,0,0,0,0,0,0,40,0,30,0,15,0,0,1000,528.7533484,False,2.255859266,C14_LAVES,0.772407592,1302.062877,Ni40 Ta30 Al15 V15 
279,0,0,0,0,20,0,0,0,20,25,0,0,25,0,0,10,1000,351.6389778,False,18.75834508,BCC_B2#3,0.485897036,1192.403723,Ni25 Ti25 Fe20 Nb20 Zr10 
280,10,0,0,10,0,0,0,0,45,0,0,30,0,0,0,5,1000,1454.977051,False,13.09313044,BCC_B2,0.509088771,803.6995444,Nb45 Ta30 Al10 Cu10 Zr5 
281,10,0,0,25,0,35,0,0,0,0,0,0,0,30,0,0,1000,862.9851314,False,15.30704863,BCC_B2,0.401849554,666.8190573,Hf35 V30 Cu25 Al10 
283,0,0,0,0,0,15,0,0,0,20,0,0,25,10,0,30,1000,446.4155132,False,17.59117922,C14_LAVES,0.369133121,726.5203718,Zr30 Ti25 Ni20 Hf15 V10 
284,0,20,0,0,30,10,0,0,0,15,25,0,0,0,0,0,1000,201.3595178,False,11.29548949,G_PHASE,0.483321147,1047.550529,Fe30 Si25 Co20 Ni15 Hf10 
285,20,0,20,0,0,0,0,0,0,40,0,0,20,0,0,0,1000,89.97419626,False,0.260723633,HEUSLER_L21,0.786860437,1286.178785,Ni40 Al20 Cr20 Ti20 
286,0,20,0,0,0,10,0,0,0,0,0,45,25,0,0,0,1000,762.0353873,False,20.53236488,BCC_B2,0.702485028,1324.159062,Ta45 Ti25 Co20 Hf10 
289,0,10,0,0,0,25,0,0,0,25,0,0,40,0,0,0,1000,505.7764614,False,8.624612603,BCC_B2,0.614751609,863.3055457,Ti40 Hf25 Ni25 Co10 
290,0,0,0,35,10,15,0,0,0,5,0,35,0,0,0,0,1000,934.159162,False,11.07079331,CU8HF3,0.40716349,950.5542741,Cu35 Ta35 Hf15 Fe10 Ni5 
295,0,0,0,0,45,0,30,0,10,0,15,0,0,0,0,0,1000,145.4851477,False,34.14611877,FCC_L12,0.843050192,1037.856943,Fe45 Mn30 Si15 Nb10 
297,15,0,10,0,0,45,0,0,0,0,0,5,25,0,0,0,1000,187.3112176,False,2.785104823,BCC_B2#2,0.976466705,1216.734194,Hf45 Ti25 Al15 Cr10 Ta5 
299,0,20,0,5,30,0,0,0,0,15,0,0,0,30,0,0,1000,134.4972007,False,24.60056927,FCC_L12#2,0.610952709,1106.016928,Fe30 V30 Co20 Ni15 Cu5 
301,0,20,30,0,0,25,0,0,0,0,0,25,0,0,0,0,1000,456.3820347,False,8.397122057,C15_LAVES,0.447874631,1398.48989,Cr30 Hf25 Ta25 Co20 
303,0,0,35,0,0,0,0,0,30,0,10,0,10,15,0,0,1000,200.5290295,False,44.28700237,BCC_B2,0.477002873,1471.552199,Cr35 Nb30 V15 Si10 Ti10 
304,0,0,0,10,0,45,0,0,0,0,10,0,0,0,0,35,1000,612.0991042,False,23.08025496,BCC_B2,0.469180615,1205.809514,Hf45 Zr35 Cu10 Si10 
305,10,0,0,25,0,0,0,0,0,0,45,0,0,0,0,20,1000,1003.979833,False,6.424177039,ZRSI2_C49,0.6,839.4759281,Si45 Cu25 Zr20 Al10 
306,30,15,25,0,0,0,0,0,0,20,0,10,0,0,0,0,1000,202.0821399,False,0.411227452,HEUSLER_L21,0.59650667,1389.585985,Al30 Cr25 Ni20 Co15 Ta10 
307,0,0,0,25,15,0,0,0,0,0,0,10,40,0,0,10,1000,616.101221,False,23.54317336,BCC_B2#2,0.355904152,854.5725859,Ti40 Cu25 Fe15 Ta10 Zr10 
310,5,0,15,0,0,0,0,0,10,0,0,40,0,30,0,0,1000,421.0630982,False,17.72916169,BCC_B2,1.0,1818.748161,Ta40 V30 Cr15 Nb10 Al5 
311,0,0,25,0,0,0,0,0,20,0,30,20,0,5,0,0,1000,438.1202216,False,31.1395252,C14_LAVES,0.549641643,1564.225167,Si30 Cr25 Nb20 Ta20 V5 
313,0,20,0,0,0,0,0,0,25,0,45,0,10,0,0,0,1000,615.3065549,False,35.12320055,CRSI2_C40,0.258223135,1085.72138,Si45 Nb25 Co20 Ti10 
318,25,20,0,15,10,0,0,0,30,0,0,0,0,0,0,0,1000,824.8194649,False,4.964700743,C14_LAVES,0.800508247,1051.238271,Nb30 Al25 Co20 Cu15 Fe10 
319,0,0,0,0,0,35,0,0,0,20,25,0,10,10,0,0,1000,1019.133701,False,13.39591535,M3SI2_D5A,0.295009335,911.8311126,Hf35 Si25 Ni20 Ti10 V10 
320,0,0,20,35,0,0,0,0,0,0,0,35,10,0,0,0,1000,826.6618406,False,7.289644256,C15_LAVES,0.289821794,893.1092898,Cu35 Ta35 Cr20 Ti10 
321,0,0,0,20,40,0,15,0,20,0,0,5,0,0,0,0,1000,669.4347604,False,31.32188695,C14_LAVES,0.749020125,916.659846,Fe40 Cu20 Nb20 Mn15 Ta5 
323,0,0,0,15,0,0,0,0,0,30,0,0,20,15,0,20,1000,697.7473837,False,20.60944464,BCC_B2#2,0.799346303,997.0900004,Ni30 Ti20 Zr20 Cu15 V15 
324,35,35,0,0,0,0,0,0,0,0,15,10,0,5,0,0,1000,230.2200662,False,3.139729323,BCC_B2#2,0.67906492,1315.719768,Al35 Co35 Si15 Ta10 V5 
328,0,20,25,0,0,0,30,0,0,0,0,0,0,25,0,0,1000,175.1902508,False,26.0525334,BCC_B2,1.0,1295.569841,Mn30 Cr25 V25 Co20 
331,0,0,0,30,30,0,15,0,0,0,0,25,0,0,0,0,1000,642.1903447,False,23.48961655,C14_LAVES,0.550032781,970.7658788,Cu30 Fe30 Ta25 Mn15 
333,0,0,0,0,0,30,0,0,25,0,0,25,20,0,0,0,1000,218.5355671,False,30.25871129,BCC_B2#2,1.0,2010.53805,Hf30 Nb25 Ta25 Ti20 
335,15,0,10,0,0,0,0,0,0,30,0,0,0,5,0,40,1000,798.8960269,False,1.959464597,C14_LAVES,0.482368224,850.1280632,Zr40 Ni30 Al15 Cr10 V5 
338,15,0,0,0,0,10,0,0,0,30,0,40,5,0,0,0,1000,978.180068,False,1.553323588,MU_PHASE,0.555283289,856.4416979,Ta40 Ni30 Al15 Hf10 Ti5 
339,0,0,0,0,25,10,0,0,0,0,0,0,25,40,0,0,1000,120.00828,False,31.86415877,C15_LAVES,0.397947691,1075.855996,V40 Fe25 Ti25 Hf10 
342,0,5,0,0,45,0,0,0,0,0,0,20,20,10,0,0,1000,224.7763345,False,24.75197337,C15_LAVES,0.848165429,1273.95149,Fe45 Ta20 Ti20 V10 Co5 
343,10,0,15,0,0,0,5,0,0,40,30,0,0,0,0,0,1000,153.1770351,False,0.70313339,BCC_B2,0.317315121,1065.441407,Ni40 Si30 Cr15 Al10 Mn5 
344,0,0,0,25,25,35,0,0,0,0,0,0,15,0,0,0,1000,522.8668779,False,16.9093337,MOSI2_C11B,0.426131283,901.7932476,Hf35 Cu25 Fe25 Ti15 
345,0,15,0,0,0,0,0,0,35,0,0,0,25,0,0,25,1000,958.5729616,False,71.01070313,BCC_B2#3,0.383058828,773.2930876,Nb35 Ti25 Zr25 Co15 
348,0,0,0,5,15,0,0,0,0,0,30,35,0,0,0,15,1000,1660.760619,False,16.93466115,C16_THETA,0.436835241,1016.730845,Ta35 Si30 Fe15 Zr15 Cu5 
349,5,0,0,0,25,0,0,0,0,0,30,10,0,30,0,0,1000,574.9977836,False,18.99659353,W5SI3_D8M,0.454556976,1025.195078,Si30 V30 Fe25 Ta10 Al5 
350,0,10,0,0,10,0,0,0,35,45,0,0,0,0,0,0,1000,66.13601169,False,9.432732216,C14_LAVES,1.0,1315.197409,Ni45 Nb35 Co10 Fe10 
351,40,0,0,0,0,0,0,0,15,0,0,0,15,0,0,30,1000,139.9716225,False,13.52589804,BCC_B2#2,0.509952366,1384.995681,Al40 Zr30 Nb15 Ti15 
353,15,0,0,0,0,30,0,0,20,15,20,0,0,0,0,0,1000,791.5781167,False,3.770068536,C14_LAVES,0.380080728,1125.088119,Hf30 Nb20 Si20 Al15 Ni15 
354,15,0,25,0,0,0,0,0,0,5,0,0,30,25,0,0,1000,459.9105157,False,3.527221091,BCC_B2#2,0.870969727,1134.54809,Ti30 Cr25 V25 Al15 Ni5 
355,0,0,0,0,35,0,0,0,10,0,0,10,0,45,0,0,1000,57.02415872,False,32.20559669,BCC_B2,1.0,1413.534478,V45 Fe35 Nb10 Ta10 
357,0,0,15,15,30,0,5,0,0,0,0,0,0,0,0,35,1000,673.1946567,False,12.49727716,C15_LAVES,0.54999721,833.2788312,Zr35 Fe30 Cr15 Cu15 Mn5 
359,0,10,0,0,40,0,0,0,35,0,15,0,0,0,0,0,1000,451.3096497,False,43.62068789,C14_LAVES,0.473229277,1036.882107,Fe40 Nb35 Si15 Co10 
360,0,0,0,0,25,0,20,0,0,0,20,0,35,0,0,0,1000,770.1354588,False,37.00341599,M5SI3_D88,0.366519219,1038.246531,Ti35 Fe25 Mn20 Si20 
361,15,0,0,0,0,0,0,0,15,30,0,20,20,0,0,0,1000,705.4823911,False,4.528914395,MU_PHASE,0.538790409,985.9397137,Ni30 Ta20 Ti20 Al15 Nb15 
363,20,10,0,0,0,0,0,0,0,10,25,0,0,35,0,0,1000,409.4602458,False,1.063988146,W5SI3_D8M,0.528012372,1311.583072,V35 Si25 Al20 Co10 Ni10 
364,0,0,25,0,0,0,0,0,0,0,10,0,25,15,0,25,1000,231.7928805,False,34.84518357,M3SI,0.39734315,1239.411149,Cr25 Ti25 Zr25 V15 Si10 
365,10,20,25,20,0,0,0,0,0,25,0,0,0,0,0,0,1000,300.8477043,False,1.663883987,FCC_L12#2,0.354181845,1001.160887,Cr25 Ni25 Co20 Cu20 Al10 
367,0,0,0,10,0,25,35,0,15,0,0,0,0,15,0,0,1000,508.8985353,False,45.22787607,C14_LAVES,0.504789491,901.1203424,Mn35 Hf25 Nb15 V15 Cu10 
373,0,0,0,0,20,15,0,0,20,0,0,0,20,25,0,0,1000,253.8345327,False,48.27465504,BCC_B2,0.693943747,1116.515344,V25 Fe20 Nb20 Ti20 Hf15 
375,0,20,0,0,0,35,0,0,0,20,0,0,25,0,0,0,1000,398.5981256,False,10.29827711,BCC_B2,0.77954025,1071.364069,Hf35 Ti25 Co20 Ni20 
377,5,0,0,10,45,20,20,0,0,0,0,0,0,0,0,0,1000,731.358278,False,12.42923382,C14_LAVES,0.59938362,879.4435707,Fe45 Hf20 Mn20 Cu10 Al5 
380,10,30,0,0,0,0,0,0,10,0,15,35,0,0,0,0,1000,528.2379699,False,6.818443396,C14_LAVES,0.71410469,1232.61345,Ta35 Co30 Si15 Al10 Nb10 
381,0,0,0,0,0,25,20,0,25,0,0,0,5,0,0,25,1000,195.8556925,False,38.31836528,BCC_B2#2,0.73408843,1359.113801,Hf25 Nb25 Zr25 Mn20 Ti5 
383,0,0,0,0,15,0,15,0,0,0,0,25,0,45,0,0,1000,252.3502591,False,36.55720426,BCC_B2,1.0,1355.011815,V45 Ta25 Fe15 Mn15 
385,0,20,0,0,35,0,0,0,35,0,0,10,0,0,0,0,1000,206.2701309,False,35.4183377,MU_PHASE#2,0.559253494,1530.809273,Fe35 Nb35 Co20 Ta10 
386,0,0,0,0,0,0,0,0,45,20,0,10,0,25,0,0,1000,640.6365098,False,21.86948598,BCC_B2,0.669512217,1106.195275,Nb45 V25 Ni20 Ta10 
388,0,35,0,0,0,0,0,0,15,40,0,0,0,10,0,0,1000,39.14529066,False,20.19752356,FCC_L12,0.629897563,1205.488464,Ni40 Co35 Nb15 V10 
390,0,20,20,0,0,0,0,0,10,0,0,35,0,0,0,15,1000,173.580718,False,11.45480345,C16_THETA,0.541680926,1352.945645,Ta35 Co20 Cr20 Zr15 Nb10 
391,0,0,5,25,15,0,25,0,0,0,30,0,0,0,0,0,1000,386.7596443,False,51.66456371,M5SI3_D88#2,0.512364638,828.2900517,Si30 Cu25 Mn25 Fe15 Cr5 
393,0,25,0,0,0,25,0,0,0,0,35,0,15,0,0,0,1000,887.9240239,False,17.37025555,C14_LAVES,0.699997348,997.9961694,Si35 Co25 Hf25 Ti15 
394,0,0,20,25,5,30,0,0,0,0,0,0,20,0,0,0,1000,592.7531922,False,9.815481381,MOSI2_C11B,0.51623107,869.965262,Hf30 Cu25 Cr20 Ti20 Fe5 
395,20,45,15,0,0,0,0,0,15,0,0,0,0,5,0,0,1000,352.9538216,False,8.719004949,BCC_B2#2,0.552997771,1311.116249,Co45 Al20 Cr15 Nb15 V5 
397,0,0,15,5,45,0,0,0,10,0,25,0,0,0,0,0,1000,504.6135711,False,6.848972994,BCC_B2#2,0.622988731,1079.935456,Fe45 Si25 Cr15 Nb10 Cu5 
399,0,0,0,0,20,15,0,0,0,0,0,0,5,45,0,15,1000,87.64635774,False,27.10225261,C15_LAVES,0.977466935,1231.658878,V45 Fe20 Hf15 Zr15 Ti5 
402,0,0,25,15,0,25,0,0,0,0,0,35,0,0,0,0,1000,991.1228589,False,7.624715025,C15_LAVES,0.366159014,975.086067,Ta35 Cr25 Hf25 Cu15 
403,0,0,5,10,0,0,10,0,0,0,0,40,35,0,0,0,1000,960.1231581,False,19.0851736,BCC_B2,0.573796465,870.1480948,Ta40 Ti35 Cu10 Mn10 Cr5 
406,0,0,0,0,0,0,0,0,10,30,0,5,35,0,0,20,1000,151.73057,False,11.86951359,BCC_B2#3,0.483239393,1249.147178,Ti35 Ni30 Zr20 Nb10 Ta5 
407,0,30,0,15,0,0,0,0,25,10,0,0,0,20,0,0,1000,127.434488,False,35.69460072,MU_PHASE#2,0.376086921,1077.428924,Co30 Nb25 V20 Cu15 Ni10 
408,0,0,25,0,0,5,0,0,10,0,0,0,25,0,0,35,1000,50.77424871,False,25.15498849,BCC_B2,0.777083111,1289.92853,Zr35 Cr25 Ti25 Nb10 Hf5 
411,0,25,0,0,0,0,40,0,0,10,0,0,0,0,0,25,1000,318.2676888,False,11.58349627,C14_LAVES,0.642018658,806.4503598,Mn40 Co25 Zr25 Ni10 
414,0,0,0,15,0,15,15,0,0,0,0,45,0,0,0,10,1000,1401.054032,False,16.3056144,BCC_B2,0.434502108,744.5627979,Ta45 Cu15 Hf15 Mn15 Zr10 
415,0,15,0,0,5,0,0,0,30,40,0,10,0,0,0,0,1000,377.8596219,False,10.43294424,MU_PHASE,0.621815448,1309.766522,Ni40 Nb30 Co15 Ta10 Fe5 
416,0,10,40,0,0,20,0,0,0,0,0,30,0,0,0,0,1000,575.6451613,False,7.037995292,C15_LAVES,0.600693502,1310.214179,Cr40 Ta30 Hf20 Co10 
417,0,25,0,0,10,0,0,0,0,0,0,15,0,40,0,10,1000,86.48467299,False,29.42897202,C15_LAVES,0.697747792,1261.972799,V40 Co25 Ta15 Fe10 Zr10 
418,35,0,10,45,0,10,0,0,0,0,0,0,0,0,0,0,1000,551.785618,False,0.624106113,GAMMA_D83,0.671311299,700.4331912,Cu45 Al35 Cr10 Hf10 
420,5,40,0,0,0,0,0,0,10,0,10,0,0,35,0,0,1000,326.2742249,False,31.10222644,CR3SI_A15,0.36112289,940.366374,Co40 V35 Nb10 Si10 Al5 
421,0,0,0,0,0,20,15,0,0,0,25,35,0,0,0,5,1000,1410.584143,False,14.96832353,C14_LAVES#2,0.731933663,1062.993271,Ta35 Si25 Hf20 Mn15 Zr5 
422,10,0,45,0,5,0,0,0,0,15,0,0,0,0,0,25,1000,168.8263995,False,1.610261716,C14_LAVES,0.79880569,1664.494682,Cr45 Zr25 Ni15 Al10 Fe5 
424,0,0,15,5,0,35,0,0,0,0,0,20,0,25,0,0,1000,508.9513295,False,20.3530376,C15_LAVES,0.800075191,1269.286835,Hf35 V25 Ta20 Cr15 Cu5 
426,0,10,10,0,30,0,25,0,0,0,0,25,0,0,0,0,1000,356.6010551,False,23.65439881,C14_LAVES,0.744359088,1239.973763,Fe30 Mn25 Ta25 Co10 Cr10 
427,0,0,0,20,10,0,0,0,0,25,0,0,25,20,0,0,1000,71.16432847,False,17.05187052,T1CUNITI,0.592221899,1070.331866,Ni25 Ti25 Cu20 V20 Fe10 
429,0,0,0,15,0,20,20,0,0,0,0,0,0,45,0,0,1000,580.911408,False,40.55426593,BCC_B2,0.538537416,896.4217311,V45 Hf20 Mn20 Cu15 
430,20,0,25,0,10,0,0,0,15,0,30,0,0,0,0,0,1000,910.6498558,False,4.780276646,M6SI5,0.651923571,1044.693141,Si30 Cr25 Al20 Nb15 Fe10 
431,20,0,0,0,25,0,0,0,35,5,0,15,0,0,0,0,1000,484.9908838,False,3.957988024,MU_PHASE#3,0.459370064,1538.469015,Nb35 Fe25 Al20 Ta15 Ni5 
432,40,0,15,0,0,0,0,0,0,30,0,0,15,0,0,0,1000,217.8250109,False,0.185776353,BCC_B2#2,0.699378102,1093.918448,Al40 Ni30 Cr15 Ti15 
433,0,0,0,0,25,40,0,0,0,5,10,0,20,0,0,0,1000,522.5882071,False,10.81806189,C16_THETA,0.54420052,974.0,Hf40 Fe25 Ti20 Si10 Ni5 
434,15,0,0,0,0,0,0,0,10,0,25,20,0,0,0,30,1000,1027.084309,False,5.784685086,SIGMA,0.412735533,1459.906602,Zr30 Si25 Ta20 Al15 Nb10 
435,0,0,0,0,0,0,15,0,0,20,0,35,0,5,0,25,1000,757.7709978,False,13.73721137,C16_THETA,0.588490189,1021.992965,Ta35 Zr25 Ni20 Mn15 V5 
437,0,0,0,25,0,0,0,0,0,20,35,0,20,0,0,0,1000,867.4843658,False,8.717177264,CO2SI_C23,0.321557771,1043.091616,Si35 Cu25 Ni20 Ti20 
438,25,10,0,0,0,0,0,0,0,0,20,45,0,0,0,0,1000,184.4729224,False,1.211321694,C14_LAVES,0.708283711,1575.16228,Ta45 Al25 Si20 Co10 
440,25,0,0,0,25,0,30,0,20,0,0,0,0,0,0,0,1000,236.361977,False,4.943085901,BCC_B2,0.524828681,1330.48757,Mn30 Al25 Fe25 Nb20 
441,0,0,10,15,0,0,0,0,30,0,0,0,0,35,0,10,1000,751.0902335,False,71.33368191,BCC_B2,0.70338896,887.3650038,V35 Nb30 Cu15 Cr10 Zr10 
442,0,0,0,0,0,0,0,0,40,0,35,0,0,15,0,10,1000,289.0431575,False,75.47162891,TA5SI3_D8L,0.426497354,1823.017698,Nb40 Si35 V15 Zr10 
444,20,35,0,0,5,30,0,0,0,0,0,10,0,0,0,0,1000,569.3992335,False,3.408250443,C14_LAVES,0.736398987,1344.977174,Co35 Hf30 Al20 Ta10 Fe5 
445,25,0,0,0,0,0,0,0,0,15,5,35,0,0,0,20,1000,617.082636,False,0.861230192,C14_LAVES,0.559579832,1287.465504,Ta35 Al25 Zr20 Ni15 Si5 
446,0,0,0,0,0,20,0,0,0,15,0,0,40,5,0,20,1000,509.2072631,False,17.91907697,BCC_B2,0.471833781,783.0096594,Ti40 Hf20 Zr20 Ni15 V5 
448,0,0,0,0,0,20,10,0,0,30,30,0,0,10,0,0,1000,550.3508164,False,16.22932171,W5SI3_D8M,0.150548463,1092.282766,Ni30 Si30 Hf20 Mn10 V10 
450,0,0,0,0,0,0,40,0,0,0,15,35,10,0,0,0,1000,1007.306134,False,21.43332208,C14_LAVES,0.622499497,826.522365,Mn40 Ta35 Si15 Ti10 
452,0,0,30,0,35,0,0,0,10,0,0,25,0,0,0,0,1000,10.56723602,False,5.740994274,C14_LAVES,1.0,1828.457656,Fe35 Cr30 Ta25 Nb10 
453,0,0,0,0,40,0,0,0,20,10,30,0,0,0,0,0,1000,393.1272373,False,15.30163386,BCC_B2#2,0.543696568,1119.046907,Fe40 Si30 Nb20 Ni10 
456,0,10,0,25,0,0,0,0,0,15,45,5,0,0,0,0,1000,219.3584057,False,7.284948144,CU6NISI3,0.432322174,965.1119781,Si45 Cu25 Ni15 Co10 Ta5 
460,25,0,0,0,20,0,0,0,0,0,0,10,0,15,0,30,1000,179.4937179,False,4.969081279,AL4ZR5,0.442726513,1117.696837,Zr30 Al25 Fe20 V15 Ta10 
461,0,0,0,0,10,0,30,0,0,25,0,0,0,30,0,5,1000,414.4899031,False,11.63500961,BCC_B2,0.817481974,895.2978945,Mn30 V30 Ni25 Fe10 Zr5 
462,0,0,0,0,30,0,0,0,25,0,0,0,35,10,0,0,1000,77.2863374,False,62.54935516,BCC_B2#2,0.637462738,1193.768374,Ti35 Fe30 Nb25 V10 
463,15,35,0,0,35,0,15,0,0,0,0,0,0,0,0,0,1000,114.2060699,False,3.222929658,BCC_B2#3,1.0,1405.370778,Co35 Fe35 Al15 Mn15 
464,0,0,0,0,0,0,0,0,30,0,15,0,15,40,0,0,1000,167.5913784,False,93.2662281,CR3SI_A15,0.509501791,1587.146629,V40 Nb30 Si15 Ti15 
465,0,25,10,5,45,0,0,0,0,0,0,0,0,15,0,0,1000,210.5036942,False,46.6432865,BCC_B2,0.664531205,1089.960667,Fe45 Co25 V15 Cr10 Cu5 
466,20,0,10,5,0,0,0,0,40,0,0,0,0,25,0,0,1000,694.2824022,False,13.29076686,BCC_B2,0.866730326,1064.227178,Nb40 V25 Al20 Cr10 Cu5 
468,0,0,30,30,20,0,0,0,0,0,0,15,0,5,0,0,1000,511.7185771,False,13.84188102,C15_LAVES,0.438343155,1080.447516,Cr30 Cu30 Fe20 Ta15 V5 
473,40,0,0,0,15,10,0,0,0,0,0,0,0,0,0,35,1000,129.1409065,False,1.402978369,ALZR,0.698751705,1194.615386,Al40 Zr35 Fe15 Hf10 
475,0,0,0,10,40,0,10,0,0,0,0,0,0,30,0,10,1000,414.0115034,False,46.37912283,BCC_B2,0.616705909,847.5902254,Fe40 V30 Cu10 Mn10 Zr10 
476,0,0,0,20,0,0,10,0,5,0,0,0,40,0,0,25,1000,522.4196557,False,40.87318034,BCC_B2,0.549232358,790.9006115,Ti40 Zr25 Cu20 Mn10 Nb5 
478,0,0,10,35,0,0,0,0,0,0,25,0,0,20,0,10,1000,706.1887579,False,38.65548906,FCC_L12,0.36596682,1004.612332,Cu35 Si25 V20 Cr10 Zr10 
479,0,20,0,5,0,0,0,0,10,25,0,40,0,0,0,0,1000,671.4417822,False,6.45701747,MU_PHASE,0.678323622,1085.556509,Ta40 Ni25 Co20 Nb10 Cu5 
480,10,0,0,0,35,0,0,0,15,0,0,40,0,0,0,0,1000,76.28711057,False,14.22579653,MU_PHASE,0.866919161,1889.550016,Ta40 Fe35 Nb15 Al10 
482,0,0,40,25,0,0,0,0,0,15,0,0,20,0,0,0,1000,458.9342659,False,2.697949806,T1CUNITI,0.591390653,975.2847937,Cr40 Cu25 Ti20 Ni15 
484,35,0,10,0,45,10,0,0,0,0,0,0,0,0,0,0,1000,63.93565478,False,0.605860571,BCC_B2#2,0.76429039,1140.795692,Fe45 Al35 Cr10 Hf10 
488,30,0,10,20,0,35,0,0,0,0,5,0,0,0,0,0,1000,1248.522967,False,0.670522861,C14_LAVES,0.431174871,600.0,Hf35 Al30 Cu20 Cr10 Si5 
489,40,0,0,0,0,0,0,0,0,20,0,0,0,10,0,30,1000,310.8420411,False,0.894466763,C14_LAVES,0.506638396,1303.978028,Al40 Zr30 Ni20 V10 
491,0,0,35,0,0,0,0,0,0,0,20,5,30,0,0,10,1000,234.27732,False,12.45084073,C14_LAVES,0.68644069,1615.31708,Cr35 Ti30 Si20 Zr10 Ta5 
492,0,40,0,0,0,0,0,0,15,0,0,0,0,15,0,30,1000,45.004846,False,71.90988592,BCC_B2#2,0.412240608,1063.448265,Co40 Zr30 Nb15 V15 
494,0,0,25,0,0,10,30,0,0,0,0,15,20,0,0,0,1000,333.6900536,False,9.594064458,C14_LAVES,0.900317816,1376.366637,Mn30 Cr25 Ti20 Ta15 Hf10 
496,0,0,35,15,0,0,5,0,0,0,0,25,0,0,0,20,1000,857.4144837,False,9.934679539,C15_LAVES,0.492866454,825.4871864,Cr35 Ta25 Zr20 Cu15 Mn5 
497,0,0,0,0,0,30,0,0,0,20,0,0,5,35,0,10,1000,664.9180501,False,13.23686041,C16_THETA,0.597701452,900.9237966,V35 Hf30 Ni20 Zr10 Ti5 
498,20,0,15,20,40,5,0,0,0,0,0,0,0,0,0,0,1000,337.3877073,False,0.628401062,BCC_B2#2,0.572271638,928.2895068,Fe40 Al20 Cu20 Cr15 Hf5 
500,10,0,40,0,0,0,10,0,0,15,0,0,0,25,0,0,1000,322.1927029,False,3.627568119,BCC_B2,0.999292987,1356.909759,Cr40 V25 Ni15 Al10 Mn10 
501,15,35,0,20,0,5,0,0,0,0,0,25,0,0,0,0,1000,899.7458247,False,4.232997254,C14_LAVES,0.603945356,1016.49089,Co35 Ta25 Cu20 Al15 Hf5 
503,0,0,0,20,0,10,0,0,25,0,45,0,0,0,0,0,1000,921.1971772,False,30.17942598,CRSI2_C40,0.409811537,963.8032217,Si45 Nb25 Cu20 Hf10 
505,0,20,30,0,0,10,10,0,30,0,0,0,0,0,0,0,1000,182.6387855,False,15.69279445,C14_LAVES,0.80264894,1434.489953,Cr30 Nb30 Co20 Hf10 Mn10 
509,0,20,0,45,0,0,20,0,0,0,0,5,0,10,0,0,1000,165.9921756,False,37.77783616,FCC_L12#2,0.565859901,927.2333878,Cu45 Co20 Mn20 V10 Ta5 
510,0,0,25,0,0,25,25,0,0,0,0,25,0,0,0,0,1000,187.0867658,False,10.34060243,C14_LAVES,0.909635892,1655.075307,Cr25 Hf25 Mn25 Ta25 
511,15,25,0,0,0,0,20,0,0,0,0,25,0,15,0,0,1000,439.9194129,False,8.43610806,C14_LAVES,0.6665976,1153.891051,Co25 Ta25 Mn20 Al15 V15 
512,0,0,30,0,0,0,15,0,0,20,0,0,0,35,0,0,1000,266.946104,False,7.598107425,BCC_B2,1.0,1323.703922,V35 Cr30 Ni20 Mn15 
513,0,0,0,0,0,35,0,0,15,20,0,0,20,0,0,10,1000,685.0433129,False,14.61662423,C16_THETA,0.597107481,870.4230002,Hf35 Ni20 Ti20 Nb15 Zr10 
514,0,0,0,0,0,0,40,0,0,0,20,0,0,10,0,30,1000,712.0733078,False,50.53859053,BCC_B2,0.494287351,1134.062686,Mn40 Zr30 Si20 V10 
515,45,0,0,0,0,0,10,0,0,0,20,25,0,0,0,0,1000,400.6848237,False,0.959848488,AL3TI_D022,0.36728204,986.2960033,Al45 Ta25 Si20 Mn10 