,Al,Co,Cr,Cu,Fe,Hf,Mn,Mo,Nb,Ni,Si,Ta,Ti,V,W,Zr,T (C),freeze_range,literature,mass_change,max_phase,max_phase_fraction,solidus,composition
3068,10,0,0,0,0,30,10,0,0,0,0,0,30,0,0,20,1000,201.6523246,False,15.90368736,BCC_B2,0.969528458,1181.493541,Hf30 Ti30 Zr20 Al10 Mn10 
3070,10,40,25,5,0,0,0,0,0,0,0,0,0,20,0,0,1000,275.9404159,False,13.64897787,BCC_B2#2,0.379183821,1074.447009,Co40 Cr25 V20 Al10 Cu5 
3071,0,0,0,10,0,0,0,0,25,0,0,40,15,10,0,0,1000,1364.016373,False,54.21184433,BCC_B2,0.825701048,904.6078496,Ta40 Nb25 Ti15 Cu10 V10 
3074,0,0,0,0,0,20,0,0,0,45,0,25,10,0,0,0,1000,642.7432399,False,5.470718833,C16_THETA,0.443887886,600.0,Ni45 Ta25 Hf20 Ti10 
3077,0,0,0,0,0,0,25,0,40,25,10,0,0,0,0,0,1000,440.5449886,False,12.16382297,C14_LAVES,0.697794273,918.7201734,Nb40 Mn25 Ni25 Si10 
3079,10,0,0,0,0,0,0,0,0,0,35,15,30,10,0,0,1000,489.9203774,False,13.17393725,ZR5SI4_TP36,0.533557718,1339.191113,Si35 Ti30 Ta15 Al10 V10 
3081,45,0,0,0,0,0,20,0,25,0,10,0,0,0,0,0,1000,425.3057793,False,4.014340265,BCC_B2,0.441885008,1122.201132,Al45 Nb25 Mn20 Si10 
3082,0,10,0,45,0,25,0,0,0,0,0,0,0,0,0,20,1000,757.7817582,False,20.59638683,CU8ZR3,0.511768473,761.0787615,Cu45 Hf25 Zr20 Co10 
3083,0,0,0,0,40,40,10,0,10,0,0,0,0,0,0,0,1000,447.6151689,False,20.88458148,C14_LAVES,0.81629655,1249.002868,Fe40 Hf40 Mn10 Nb10 
3084,5,0,15,0,35,0,0,0,15,0,0,0,0,30,0,0,1000,44.13350684,False,36.60914428,BCC_B2#2,0.767654625,1431.764968,Fe35 V30 Cr15 Nb15 Al5 
3085,0,0,10,25,0,0,0,0,45,0,0,0,20,0,0,0,1000,840.2153856,False,35.13683152,BCC_B2,0.461457581,881.8571194,Nb45 Cu25 Ti20 Cr10 
3086,0,0,0,35,5,0,0,0,0,35,10,0,0,15,0,0,1000,233.3247618,False,17.62158054,FCC_L12,0.376861246,877.8759346,Cu35 Ni35 V15 Si10 Fe5 
3087,10,0,30,0,10,0,0,0,5,0,0,45,0,0,0,0,1000,133.6663354,False,4.254006272,C14_LAVES,0.780366137,1691.298272,Ta45 Cr30 Al10 Fe10 Nb5 
3088,0,0,0,0,10,0,0,0,0,0,5,45,0,30,0,10,1000,683.8909642,False,29.26772968,BCC_B2,0.538844277,1426.571119,Ta45 V30 Fe10 Zr10 Si5 
3090,0,10,0,0,20,0,10,0,0,0,20,40,0,0,0,0,1000,345.2260143,False,23.20477653,C14_LAVES,0.801719762,864.8263452,Ta40 Fe20 Si20 Co10 Mn10 
3092,0,0,15,0,0,0,0,0,10,45,30,0,0,0,0,0,1000,515.9933837,False,1.240479458,NI31SI12,0.446365792,957.9558644,Ni45 Si30 Cr15 Nb10 
3093,0,0,0,0,10,30,35,0,0,0,0,0,0,0,0,25,1000,305.2174871,False,25.91107833,C14_LAVES,0.74595607,1244.958737,Mn35 Hf30 Zr25 Fe10 
3094,25,0,0,0,0,5,25,0,0,0,0,35,10,0,0,0,1000,372.6939703,False,3.324603189,SIGMA,0.514134267,1335.852485,Ta35 Al25 Mn25 Ti10 Hf5 
3096,0,30,0,0,0,0,0,0,40,10,0,0,15,5,0,0,1000,163.1846243,False,30.11512876,MU_PHASE,0.532391453,1075.93374,Nb40 Co30 Ti15 Ni10 V5 
3097,0,0,0,10,20,0,0,0,0,25,35,0,0,10,0,0,1000,137.84404,False,16.76768883,CO2SI_C23,0.566959801,1114.862522,Si35 Ni25 Fe20 Cu10 V10 
3100,0,0,0,0,5,0,35,0,0,0,10,20,0,30,0,0,1000,168.6785827,False,35.52922782,C14_LAVES,0.590624263,1133.605614,Mn35 V30 Ta20 Si10 Fe5 
3101,0,0,0,10,0,0,35,0,35,0,20,0,0,0,0,0,1000,855.8989816,False,50.15273329,TA5SI3_D8L,0.518218471,955.5582784,Mn35 Nb35 Si20 Cu10 
3103,0,30,0,15,0,15,0,0,0,0,0,0,0,0,0,40,1000,499.1489045,False,22.47280257,BCC_B2#2,0.29094182,912.7942195,Zr40 Co30 Cu15 Hf15 
3105,0,0,0,20,25,0,0,0,0,0,30,0,0,0,0,25,1000,858.295701,False,27.66211662,ZR5SI4_TP36,0.449982907,1021.561476,Si30 Fe25 Zr25 Cu20 
3106,10,0,0,15,0,0,30,0,45,0,0,0,0,0,0,0,1000,547.379611,False,20.57886873,C14_LAVES,0.402910433,969.8422887,Nb45 Mn30 Cu15 Al10 
3107,0,0,0,5,0,40,30,0,0,10,0,0,15,0,0,0,1000,596.9372235,False,10.586531,C14_LAVES,0.48128511,861.7481016,Hf40 Mn30 Ti15 Ni10 Cu5 
3109,0,0,20,0,0,0,0,0,20,10,0,5,0,0,0,45,1000,590.7633576,False,10.93481897,C16_THETA,0.345296586,972.2094822,Zr45 Cr20 Nb20 Ni10 Ta5 
3115,0,0,0,30,0,20,35,0,0,0,0,5,0,10,0,0,1000,402.1051039,False,29.43947138,C14_LAVES,0.471320962,906.67704,Mn35 Cu30 Hf20 V10 Ta5 
3118,0,0,0,15,0,20,20,0,0,0,0,5,40,0,0,0,1000,295.9954633,False,22.63589068,MOSI2_C11B,0.420215942,937.3181644,Ti40 Hf20 Mn20 Cu15 Ta5 
3119,0,0,0,0,20,0,20,0,0,0,0,10,45,5,0,0,1000,164.0189983,False,39.08459315,BCC_B2,0.494603596,1085.165774,Ti45 Fe20 Mn20 Ta10 V5 
3121,25,25,0,0,0,0,5,0,0,25,0,0,0,20,0,0,1000,200.2173869,False,1.142697282,BCC_B2#2,1.0,1287.403389,Al25 Co25 Ni25 V20 Mn5 
3122,0,0,0,30,15,0,20,0,0,0,35,0,0,0,0,0,1000,452.8062405,False,71.50965759,FESI_B20,0.584935153,801.7753617,Si35 Cu30 Mn20 Fe15 
3123,0,0,20,0,0,25,0,0,20,25,10,0,0,0,0,0,1000,762.1397788,False,5.281702861,HFNI_ALPHA,0.45850097,913.4299651,Hf25 Ni25 Cr20 Nb20 Si10 
3124,0,0,40,0,10,0,0,0,10,0,0,0,35,5,0,0,1000,179.7676598,False,20.96860307,BCC_B2,0.523663028,1269.622803,Cr40 Ti35 Fe10 Nb10 V5 
3125,0,0,0,0,35,25,0,0,0,0,0,20,20,0,0,0,1000,291.5998346,False,17.6568265,C14_LAVES,0.526757861,1153.83188,Fe35 Hf25 Ta20 Ti20 
3126,0,0,5,10,0,0,0,0,0,0,0,15,35,35,0,0,1000,661.194901,False,31.82725188,BCC_B2,0.808455992,953.4812055,Ti35 V35 Ta15 Cu10 Cr5 
3129,15,30,0,0,0,0,0,0,0,25,0,0,30,0,0,0,1000,203.1904266,False,2.48258444,BCC_B2#2,0.703398225,1283.411297,Co30 Ti30 Ni25 Al15 
3130,35,0,25,0,0,0,0,0,0,10,0,0,0,20,0,10,1000,392.5862306,False,0.908151673,BCC_B2,0.610174983,1296.082124,Al35 Cr25 V20 Ni10 Zr10 
3131,15,0,0,0,30,0,0,0,0,40,0,0,0,0,0,15,1000,70.03033233,False,0.759645536,HEUSLER_L21,0.442701769,1126.457193,Ni40 Fe30 Al15 Zr15 
3132,0,0,45,0,0,0,20,0,0,0,0,0,20,0,0,15,1000,21.36480344,False,14.85579838,C14_LAVES,1.0,1527.753722,Cr45 Mn20 Ti20 Zr15 
3134,40,0,0,0,20,0,0,0,25,15,0,0,0,0,0,0,1000,289.2374894,False,0.61642528,C14_LAVES,0.724528736,1420.797161,Al40 Nb25 Fe20 Ni15 
3135,0,0,40,10,0,0,0,0,0,0,0,40,10,0,0,0,1000,797.144658,False,5.430416223,C15_LAVES,0.595147045,883.5377536,Cr40 Ta40 Cu10 Ti10 
3136,0,0,0,0,0,15,0,0,10,10,40,0,0,0,0,25,1000,1144.451452,False,9.167434515,ZR5SI4_TP36,0.703835212,1048.816083,Si40 Zr25 Hf15 Nb10 Ni10 
3138,0,5,0,0,0,0,25,0,0,0,10,30,0,30,0,0,1000,290.680815,False,34.47181851,CR3SI_A15,0.399566964,1067.591802,Ta30 V30 Mn25 Si10 Co5 
3139,0,15,0,20,0,0,25,0,0,30,10,0,0,0,0,0,1000,273.2429974,False,12.37563275,MNNISI_T6,0.472083465,1034.637804,Ni30 Mn25 Cu20 Co15 Si10 
3140,0,0,25,0,10,0,0,0,30,0,0,0,0,10,0,25,1000,158.8291812,False,52.25899812,C15_LAVES,0.541130745,1245.635879,Nb30 Cr25 Zr25 Fe10 V10 
3141,35,0,15,0,0,5,10,0,0,0,0,35,0,0,0,0,1000,498.6840602,False,1.040949538,C14_LAVES,0.505290604,1242.158955,Al35 Ta35 Cr15 Mn10 Hf5 
3142,15,0,10,0,0,0,20,0,25,0,30,0,0,0,0,0,1000,831.4718026,False,6.560243335,M6SI5,0.53634183,1029.538256,Si30 Nb25 Mn20 Al15 Cr10 
3144,0,0,25,30,10,5,0,0,0,0,0,0,0,30,0,0,1000,622.1475841,False,17.87931047,BCC_B2,0.52528524,959.4391981,Cu30 V30 Cr25 Fe10 Hf5 
3147,10,20,0,0,0,0,0,0,0,0,25,45,0,0,0,0,1000,409.9823143,False,5.134734764,C14_LAVES,0.646878087,1213.731886,Ta45 Si25 Co20 Al10 
3148,0,0,0,0,0,0,30,0,20,15,0,5,30,0,0,0,1000,406.8311163,False,16.42584571,C14_LAVES,0.575075695,838.4106755,Mn30 Ti30 Nb20 Ni15 Ta5 
3150,0,0,20,0,0,40,0,0,15,20,0,0,0,5,0,0,1000,397.8998392,False,9.180154156,C15_LAVES,0.327207605,1101.109032,Hf40 Cr20 Ni20 Nb15 V5 
3151,30,0,10,0,15,45,0,0,0,0,0,0,0,0,0,0,1000,82.15788077,False,0.681432991,C14_LAVES,0.56752255,1317.990077,Hf45 Al30 Fe15 Cr10 
3152,0,0,0,0,0,20,0,0,40,30,0,0,0,10,0,0,1000,672.4204555,False,21.02997601,BCC_B2,0.412040246,1062.112593,Nb40 Ni30 Hf20 V10 
3153,0,0,0,0,0,0,40,0,25,5,15,15,0,0,0,0,1000,524.4857518,False,16.97360564,C14_LAVES,0.544346016,1162.063291,Mn40 Nb25 Si15 Ta15 Ni5 
3155,0,25,0,0,10,0,0,0,0,0,0,0,30,10,0,25,1000,312.6413022,False,51.42601545,BCC_B2#3,0.497847153,792.8658036,Ti30 Co25 Zr25 Fe10 V10 
3159,0,0,0,0,0,0,0,0,30,20,0,0,15,35,0,0,1000,427.8635286,False,27.26096992,BCC_B2,0.566620966,1085.309295,V35 Nb30 Ni20 Ti15 
3160,15,0,25,0,25,0,15,0,0,0,20,0,0,0,0,0,1000,95.74543606,False,1.171492892,BCC_B2#2,0.87441682,1204.934976,Cr25 Fe25 Si20 Al15 Mn15 
3161,15,0,15,0,0,0,0,0,20,5,0,0,45,0,0,0,1000,179.3037286,False,5.088724786,BCC_B2#2,1.0,1426.895001,Ti45 Nb20 Al15 Cr15 Ni5 
3162,40,10,0,15,0,0,0,0,0,0,35,0,0,0,0,0,1000,526.6079615,False,0.586516237,DIAMOND_A4,0.260631615,688.5145525,Al40 Si35 Cu15 Co10 
3163,35,0,10,25,10,0,0,0,0,0,20,0,0,0,0,0,1000,405.0802738,False,0.373133173,BCC_B2#2,0.706921027,903.6230143,Al35 Cu25 Si20 Cr10 Fe10 
3164,0,30,0,0,0,0,0,0,30,20,0,20,0,0,0,0,1000,251.327554,False,11.90096782,MU_PHASE,0.527245313,1497.786143,Co30 Nb30 Ni20 Ta20 
3166,40,0,5,0,0,0,25,0,15,15,0,0,0,0,0,0,1000,299.8328705,False,0.607059011,BCC_B2,0.681978616,1144.368191,Al40 Mn25 Nb15 Ni15 Cr5 
3167,15,0,0,0,0,0,0,0,30,0,0,35,0,20,0,0,1000,431.3752995,False,17.89878206,BCC_B2,0.89646971,1845.56264,Ta35 Nb30 V20 Al15 
3169,15,0,0,40,0,10,0,0,20,0,0,0,0,0,0,15,1000,1004.377432,False,12.34067298,CU51HF14,0.459697255,726.7240346,Cu40 Nb20 Al15 Zr15 Hf10 
3171,0,5,0,0,25,15,0,0,0,30,25,0,0,0,0,0,1000,243.0653953,False,7.034937206,G_PHASE,0.724996732,1158.702214,Ni30 Fe25 Si25 Hf15 Co5 
3172,35,0,15,10,0,0,0,0,0,0,40,0,0,0,0,0,1000,662.2296552,False,0.369420415,CRSI2_C40,0.450020477,600.0,Si40 Al35 Cr15 Cu10 
3176,25,0,20,0,0,0,40,0,0,15,0,0,0,0,0,0,1000,104.4776024,False,0.221530523,BCC_B2,0.721060821,1253.748786,Mn40 Al25 Cr20 Ni15 
3178,0,0,15,30,0,0,0,0,0,25,0,0,20,0,0,10,1000,496.2902354,False,5.052103183,BCC_B2#2,0.580451089,1036.183532,Cu30 Ni25 Ti20 Cr15 Zr10 
3179,20,0,0,10,0,40,0,0,0,20,10,0,0,0,0,0,1000,1117.089697,False,0.511343385,HEUSLER_L21,0.312048853,647.8181688,Hf40 Al20 Ni20 Cu10 Si10 
3180,5,45,0,0,0,0,15,0,0,0,10,0,25,0,0,0,1000,380.5208518,False,18.41795444,BCC_B2#2,0.527148825,853.687735,Co45 Ti25 Mn15 Si10 Al5 
3182,25,0,10,0,0,0,25,0,20,0,0,0,0,20,0,0,1000,101.7114019,False,11.33318725,BCC_B2,0.980291251,1418.361376,Al25 Mn25 Nb20 V20 Cr10 
3186,0,0,25,10,0,0,0,0,45,0,10,0,10,0,0,0,1000,713.8811647,False,18.31402924,C14_LAVES,0.432494591,946.8904901,Nb45 Cr25 Cu10 Si10 Ti10 
3187,0,0,0,20,0,0,0,0,0,0,0,0,10,40,0,30,1000,530.9210802,False,47.86740567,BCC_B2,0.479370507,920.6307612,V40 Zr30 Cu20 Ti10 
3190,0,20,0,0,25,0,0,0,0,0,15,40,0,0,0,0,1000,448.1013108,False,22.59862573,C14_LAVES,0.826925354,943.3685587,Ta40 Fe25 Co20 Si15 
3192,0,25,0,0,0,0,0,0,30,0,20,25,0,0,0,0,1000,832.1494651,False,34.52259803,TA5SI3_D8L,0.500092895,1171.241131,Nb30 Co25 Ta25 Si20 
3194,0,0,0,40,30,10,20,0,0,0,0,0,0,0,0,0,1000,423.315621,False,30.0244768,FCC_L12#2,0.502286664,884.0101112,Cu40 Fe30 Mn20 Hf10 
3195,15,0,35,0,0,0,0,0,35,5,0,0,10,0,0,0,1000,537.0552774,False,4.11196793,C14_LAVES,0.739063825,1411.926311,Cr35 Nb35 Al15 Ti10 Ni5 
3196,35,10,0,0,0,20,0,0,0,20,0,0,0,15,0,0,1000,406.2436353,False,1.035789039,C14_LAVES,0.437692889,1139.02,Al35 Hf20 Ni20 V15 Co10 
3197,5,25,0,0,0,15,0,0,10,45,0,0,0,0,0,0,1000,166.9803278,False,3.991104703,NI7ZR2,0.584318312,1170.120353,Ni45 Co25 Hf15 Nb10 Al5 
3199,0,15,0,15,0,0,0,0,45,0,0,25,0,0,0,0,1000,828.7208499,False,33.40581023,BCC_B2,0.461249453,1090.569217,Nb45 Ta25 Co15 Cu15 
3201,0,25,10,0,35,0,0,0,0,0,0,15,15,0,0,0,1000,350.1714621,False,18.31644452,C14_LAVES,0.981595702,1193.390066,Fe35 Co25 Ta15 Ti15 Cr10 
3206,0,0,15,0,35,0,0,0,15,0,30,0,0,0,0,5,1000,681.4975474,False,13.07784213,BCC_B2#2,0.451254551,1111.443414,Fe35 Si30 Cr15 Nb15 Zr5 
3207,0,0,45,0,20,0,10,0,0,5,20,0,0,0,0,0,1000,258.2219743,False,3.881077341,CR3SI_A15,0.497625513,1219.221061,Cr45 Fe20 Si20 Mn10 Ni5 
3208,35,0,0,20,0,0,0,0,0,0,5,0,25,15,0,0,1000,839.4837575,False,4.648621011,BCC_B2#2,0.365323643,921.115319,Al35 Ti25 Cu20 V15 Si5 
3209,0,40,0,0,0,0,0,0,0,10,0,0,25,0,0,25,1000,45.6068639,False,16.61686664,BCC_B2#2,1.0,1433.400468,Co40 Ti25 Zr25 Ni10 
3210,0,0,0,0,40,0,0,0,5,0,0,0,10,20,0,25,1000,272.6959375,False,38.3045363,C15_LAVES,0.841760383,1065.152588,Fe40 Zr25 V20 Ti10 Nb5 
3213,0,20,0,0,0,0,0,0,0,0,30,0,30,0,0,20,1000,761.7755762,False,34.3469157,M5SI3_D88,0.342337596,1207.160172,Si30 Ti30 Co20 Zr20 
3214,0,0,40,0,0,0,0,0,0,0,30,20,0,10,0,0,1000,39.00882243,False,12.5876707,C14_LAVES,0.593126411,1574.156773,Cr40 Si30 Ta20 V10 
3215,10,0,20,40,30,0,0,0,0,0,0,0,0,0,0,0,1000,313.4664634,False,1.612580587,BCC_B2#2,0.537276034,1048.533537,Cu40 Fe30 Cr20 Al10 
3216,0,0,0,0,0,0,45,0,35,0,0,0,10,10,0,0,1000,59.40354555,False,70.82649143,C14_LAVES,0.530963839,1309.180783,Mn45 Nb35 Ti10 V10 
3217,25,0,0,15,35,20,0,0,0,0,0,0,0,5,0,0,1000,733.6896861,False,2.605048599,C15_LAVES,0.505089244,600.0,Fe35 Al25 Hf20 Cu15 V5 
3220,0,0,0,25,0,0,35,0,0,0,0,10,0,10,0,20,1000,517.0529369,False,38.94875408,C14_LAVES,0.491426187,807.0201001,Mn35 Cu25 Zr20 Ta10 V10 
3222,0,0,0,0,25,0,0,0,30,0,0,0,30,0,0,15,1000,312.1926485,False,67.53145022,C14_LAVES,0.546491454,1097.299793,Nb30 Ti30 Fe25 Zr15 
3223,0,0,20,0,5,0,0,0,0,0,0,45,0,10,0,20,1000,744.7674831,False,17.12930254,C15_LAVES,0.503121739,1232.628333,Ta45 Cr20 Zr20 V10 Fe5 
3226,10,0,0,15,30,25,0,0,20,0,0,0,0,0,0,0,1000,690.2919074,False,12.69212839,C14_LAVES,0.59111085,855.2082864,Fe30 Hf25 Nb20 Cu15 Al10 
3227,0,35,0,25,0,0,5,0,0,0,25,0,0,0,0,10,1000,365.9480684,False,31.1357857,G_PHASE,0.399966016,878.2889619,Co35 Cu25 Si25 Zr10 Mn5 
3228,25,0,0,0,0,0,25,0,0,30,5,0,0,15,0,0,1000,29.32618379,False,0.951937822,BCC_B2,0.922978991,1338.687583,Ni30 Al25 Mn25 V15 Si5 
3229,0,0,0,0,45,0,10,0,0,0,0,15,0,15,0,15,1000,239.3273727,False,32.57062691,C14_LAVES,0.516260362,1299.372591,Fe45 Ta15 V15 Zr15 Mn10 
3230,0,35,30,0,20,0,0,0,0,0,0,0,0,15,0,0,1000,60.53742453,False,18.74334846,BCC_B2#2,0.781185246,1303.345596,Co35 Cr30 Fe20 V15 
3231,0,0,0,0,0,10,0,0,5,20,0,30,35,0,0,0,1000,701.040924,False,8.42465864,C16_THETA,0.56245779,899.6464508,Ti35 Ta30 Ni20 Hf10 Nb5 
3235,10,25,0,0,0,30,0,0,0,5,30,0,0,0,0,0,1000,498.3921995,False,6.571822618,C14_LAVES,0.39481924,991.2270984,Hf30 Si30 Co25 Al10 Ni5 
3237,10,20,0,0,0,0,0,0,0,0,0,0,15,15,0,40,1000,396.4337739,False,32.39788639,C16_THETA,0.352737583,738.0663754,Zr40 Co20 Ti15 V15 Al10 
3238,0,0,5,25,25,0,0,0,0,0,20,0,0,0,0,25,1000,729.3225419,False,19.90915598,C14_LAVES,0.300543868,1014.834621,Cu25 Fe25 Zr25 Si20 Cr5 
3240,30,0,0,0,5,35,20,0,0,0,0,0,10,0,0,0,1000,448.3637898,False,2.758581775,C14_LAVES,0.623621402,1038.338065,Hf35 Al30 Mn20 Ti10 Fe5 
3241,15,0,0,0,0,0,0,0,0,25,15,0,5,40,0,0,1000,390.6320932,False,2.750326955,CR3SI_A15,0.515811815,1258.685808,V40 Ni25 Al15 Si15 Ti5 
3243,0,25,0,0,0,0,0,0,0,0,10,10,40,15,0,0,1000,308.2531795,False,34.39427603,BCC_B2#2,0.694054651,1104.283529,Ti40 Co25 V15 Si10 Ta10 
3247,20,30,0,25,25,0,0,0,0,0,0,0,0,0,0,0,1000,289.3432521,False,1.382645597,BCC_B2,0.793294519,1065.392317,Co30 Cu25 Fe25 Al20 
3248,0,25,0,0,0,10,0,0,0,0,0,0,35,0,0,30,1000,573.7743341,False,26.59959416,BCC_B2#2,0.444877719,713.7558304,Ti35 Zr30 Co25 Hf10 
3250,10,0,0,0,45,15,5,0,0,0,0,25,0,0,0,0,1000,78.97570461,False,6.770842178,C14_LAVES,1.0,1643.592254,Fe45 Ta25 Hf15 Al10 Mn5 
3251,45,10,0,0,0,0,5,0,0,15,25,0,0,0,0,0,1000,564.1325324,False,0.197124385,BCC_B2#2,0.473002093,776.4672111,Al45 Si25 Ni15 Co10 Mn5 
3252,5,0,0,25,40,20,0,0,10,0,0,0,0,0,0,0,1000,793.9955049,False,8.993969013,C14_LAVES,0.681117545,854.21446,Fe40 Cu25 Hf20 Nb10 Al5 
3253,0,0,0,0,10,0,0,0,0,35,0,10,0,45,0,0,1000,162.6723147,False,14.14191322,BCC_B2,0.672029938,1200.45369,V45 Ni35 Fe10 Ta10 
3255,45,0,15,0,0,0,0,0,0,0,15,5,20,0,0,0,1000,719.0022367,False,0.817698434,AL3TI_D022,0.452875329,1148.321526,Al45 Ti20 Cr15 Si15 Ta5 
3256,0,0,40,0,30,15,5,0,0,0,0,0,0,10,0,0,1000,150.8404614,False,13.09990341,BCC_B2,0.567658191,1499.383259,Cr40 Fe30 Hf15 V10 Mn5 
3258,0,0,0,0,20,0,0,0,40,20,0,0,15,5,0,0,1000,216.4813872,False,22.46539649,MU_PHASE,0.417536504,1099.427937,Nb40 Fe20 Ni20 Ti15 V5 
3259,0,0,0,10,10,0,0,0,40,0,0,40,0,0,0,0,1000,1167.023901,False,32.8075012,BCC_B2,0.68424198,1088.849982,Nb40 Ta40 Cu10 Fe10 
3261,0,0,0,35,0,0,0,0,0,25,0,15,0,25,0,0,1000,127.3755053,False,13.80491128,FCC_L12#2,0.389795102,1091.00617,Cu35 Ni25 V25 Ta15 
3262,0,20,20,40,10,0,0,0,0,0,0,10,0,0,0,0,1000,388.7544255,False,9.280112704,FCC_L12,0.409358107,1080.799126,Cu40 Co20 Cr20 Fe10 Ta10 
3263,5,0,10,20,0,0,0,0,0,0,0,20,45,0,0,0,1000,784.4841823,False,9.536378181,BCC_B2#2,0.481486475,917.1791988,Ti45 Cu20 Ta20 Cr10 Al5 
3264,0,0,0,5,0,10,0,0,0,20,0,0,45,0,0,20,1000,390.9777792,False,12.17236274,C14_LAVES,0.726602696,862.8436563,Ti45 Ni20 Zr20 Hf10 Cu5 
3266,0,0,25,0,25,0,0,0,15,0,0,0,0,35,0,0,1000,120.3142586,False,39.20506909,BCC_B2,0.893726447,1420.153141,V35 Cr25 Fe25 Nb15 
3268,0,15,0,0,15,25,0,0,0,40,0,0,5,0,0,0,1000,286.5966845,False,7.037625894,C15_LAVES,0.591648555,1049.394618,Ni40 Hf25 Co15 Fe15 Ti5 
3269,0,5,0,10,30,0,45,0,0,0,0,0,0,10,0,0,1000,336.8828311,False,62.93526467,FCC_L12,0.58620736,893.8990319,Mn45 Fe30 Cu10 V10 Co5 
3273,0,0,0,0,0,20,45,0,0,0,15,20,0,0,0,0,1000,928.1305183,False,20.73717091,C14_LAVES,0.687713097,851.9548227,Mn45 Hf20 Ta20 Si15 
3275,0,0,20,0,0,0,0,0,30,0,25,0,25,0,0,0,1000,208.7976725,False,32.35455829,C14_LAVES,0.422194563,1692.423568,Nb30 Si25 Ti25 Cr20 
3276,0,0,10,20,0,0,0,0,20,0,30,20,0,0,0,0,1000,901.0160287,False,30.21109342,TA5SI3_D8L,0.350865676,1076.18219,Si30 Cu20 Nb20 Ta20 Cr10 
3277,0,0,0,30,0,0,15,0,30,0,0,0,0,25,0,0,1000,666.3163228,False,89.61242924,BCC_B2,0.655007368,933.3123046,Cu30 Nb30 V25 Mn15 
3280,5,10,0,0,0,0,0,0,35,0,0,15,35,0,0,0,1000,881.3351144,False,28.73561442,BCC_B2,0.853159689,1069.63443,Nb35 Ti35 Ta15 Co10 Al5 
3281,0,0,0,0,35,0,20,0,15,0,0,10,20,0,0,0,1000,132.0710528,False,34.08204865,C14_LAVES,1.0,1410.280254,Fe35 Mn20 Ti20 Nb15 Ta10 
3282,5,0,15,0,0,15,0,0,0,0,0,0,35,30,0,0,1000,114.9728202,False,17.5277438,BCC_B2,1.0,1334.404095,Ti35 V30 Cr15 Hf15 Al5 
3283,0,25,0,0,0,40,15,0,5,0,0,0,0,15,0,0,1000,202.2766368,False,28.74416305,BCC_B2#3,0.445754628,1249.727376,Hf40 Co25 Mn15 V15 Nb5 
3284,0,0,0,20,0,25,0,0,0,0,10,0,45,0,0,0,1000,423.9256971,False,22.00640085,MOSI2_C11B,0.571322974,1037.788369,Ti45 Hf25 Cu20 Si10 
3287,0,0,25,0,0,0,0,0,0,25,0,0,0,35,0,15,1000,652.8602596,False,6.954198571,BCC_B2,0.606442196,1082.480204,V35 Cr25 Ni25 Zr15 
3290,0,0,0,40,35,0,0,0,0,0,0,0,10,15,0,0,1000,145.4768041,False,41.80834517,FCC_L12,0.4012408,1074.413008,Cu40 Fe35 V15 Ti10 
3291,0,0,20,0,0,5,0,0,0,35,0,25,0,15,0,0,1000,303.9683863,False,3.376278965,C15_LAVES,0.649378016,1050.43384,Ni35 Ta25 Cr20 V15 Hf5 
3292,0,0,30,0,0,0,0,0,0,0,0,0,25,10,0,35,1000,68.65888924,False,31.852183,BCC_B2,0.582325209,1260.498237,Zr35 Cr30 Ti25 V10 
3293,0,0,0,0,0,15,0,0,45,0,0,0,0,15,0,25,1000,268.609355,False,60.17328457,BCC_B2,1.0,1641.590459,Nb45 Zr25 Hf15 V15 
3295,0,25,35,0,5,0,0,0,0,25,0,10,0,0,0,0,1000,27.61693955,False,2.056020499,FCC_L12,0.542766039,1223.260994,Cr35 Co25 Ni25 Ta10 Fe5 
3296,0,5,0,0,0,0,0,0,0,35,0,30,0,20,0,10,1000,524.9335862,False,10.75121365,MU_PHASE,0.39063388,891.2606984,Ni35 Ta30 V20 Zr10 Co5 
3297,0,0,10,0,0,0,0,0,0,45,25,0,20,0,0,0,1000,1040.014881,False,4.470654873,C14_LAVES,0.588997504,1107.570994,Ni45 Si25 Ti20 Cr10 
3299,0,20,0,0,0,20,0,0,0,20,0,5,0,35,0,0,1000,438.5582742,False,14.33496248,BCC_B2,0.411159485,1074.439207,V35 Co20 Hf20 Ni20 Ta5 
3301,0,15,0,0,35,20,10,0,0,20,0,0,0,0,0,0,1000,273.718602,False,9.25122134,C15_LAVES,0.60179757,1130.191653,Fe35 Hf20 Ni20 Co15 Mn10 
3302,15,10,0,35,0,0,0,0,30,0,0,0,0,10,0,0,1000,589.6050539,False,18.26024378,FCC_L12,0.396742218,1067.51712,Cu35 Nb30 Al15 Co10 V10 
3305,0,0,0,0,0,0,20,0,0,30,0,35,0,15,0,0,1000,343.893588,False,14.61701923,MU_PHASE,0.507724005,951.9652579,Ta35 Ni30 Mn20 V15 
3309,0,20,0,0,0,5,20,0,35,0,20,0,0,0,0,0,1000,923.1761468,False,35.65902318,TA5SI3_D8L,0.494282196,883.8893335,Nb35 Co20 Mn20 Si20 Hf5 
3311,25,5,0,0,45,0,0,0,0,0,15,0,0,10,0,0,1000,56.30972916,False,2.325735886,BCC_B2#2,1.0,1238.765042,Fe45 Al25 Si15 V10 Co5 
3312,0,15,10,25,0,0,0,0,0,0,0,5,0,0,0,45,1000,471.9501475,False,19.8493797,BCC_B2,0.502648511,924.4417739,Zr45 Cu25 Co15 Cr10 Ta5 
3315,0,20,0,15,25,0,0,0,0,0,0,0,0,40,0,0,1000,139.2846167,False,64.9792808,BCC_B2,0.870727416,1088.917841,V40 Fe25 Co20 Cu15 
3316,0,5,0,15,0,0,0,0,30,10,0,0,0,40,0,0,1000,449.5648862,False,36.01023315,BCC_B2,0.745447851,1090.771454,V40 Nb30 Cu15 Ni10 Co5 
3319,15,0,25,0,0,30,0,0,0,0,0,25,0,0,0,5,1000,210.8212908,False,1.973938342,C14_LAVES#2,0.418520638,1398.766812,Hf30 Cr25 Ta25 Al15 Zr5 