,Al,Co,Cr,Cu,Fe,Hf,Mn,Mo,Nb,Ni,Si,Ta,Ti,V,W,Zr,T (C),freeze_range,literature,mass_change,max_phase,max_phase_fraction,solidus,composition
1517,0,15,15,0,0,0,0,0,0,30,0,40,0,0,0,0,1000,45.88253543,False,1.665031334,C14_LAVES,0.696424116,1483.143033,Ta40 Ni30 Co15 Cr15 
1519,0,0,0,0,0,15,10,0,0,45,0,0,20,10,0,0,1000,63.71692473,False,11.37473822,FCC_L12#2,0.73748392,869.0022273,Ni45 Ti20 Hf15 Mn10 V10 
1522,30,0,0,0,45,0,15,0,0,0,0,0,10,0,0,0,1000,323.0537355,False,1.992856743,BCC_B2#2,1.0,1390.799253,Fe45 Al30 Mn15 Ti10 
1528,0,0,35,0,35,0,0,0,0,10,0,15,0,0,0,5,1000,255.4385116,False,1.15454041,C14_LAVES,0.637624801,1379.776631,Cr35 Fe35 Ta15 Ni10 Zr5 
1533,0,0,45,0,0,0,0,0,0,0,0,10,30,15,0,0,1000,45.46595425,False,19.84497198,BCC_B2#2,0.882972807,1492.940177,Cr45 Ti30 V15 Ta10 
1534,0,15,0,0,0,25,0,0,0,0,0,0,45,0,0,15,1000,48.99837796,False,24.76916888,BCC_B2#2,0.592921456,1238.557203,Ti45 Hf25 Co15 Zr15 
1536,0,0,0,10,0,40,30,0,0,0,20,0,0,0,0,0,1000,1198.736232,False,32.97109406,M3SI2_D5A,0.486225767,808.934438,Hf40 Mn30 Si20 Cu10 
1537,15,25,0,10,0,0,0,0,15,35,0,0,0,0,0,0,1000,413.8415403,False,2.714806413,BCC_B2#2,0.519448743,1112.358527,Ni35 Co25 Al15 Nb15 Cu10 
1538,0,5,10,40,0,0,0,0,10,0,0,0,0,0,0,35,1000,601.7056309,False,21.70976866,BCC_B2#3,0.500985631,897.7477892,Cu40 Zr35 Cr10 Nb10 Co5 
1540,35,10,0,20,0,0,0,0,0,0,0,0,35,0,0,0,1000,271.287877,False,1.787316454,BCC_B2#2,0.594724938,940.2851942,Al35 Ti35 Cu20 Co10 
1541,0,20,0,10,0,20,45,0,0,0,5,0,0,0,0,0,1000,460.9934467,False,32.6698024,FCC_L12,0.601195188,906.9378025,Mn45 Co20 Hf20 Cu10 Si5 
1542,0,0,0,15,0,40,5,0,0,0,0,10,30,0,0,0,1000,589.813374,False,24.06273578,BCC_B2#2,0.526340069,1057.803118,Hf40 Ti30 Cu15 Ta10 Mn5 
1543,0,0,15,0,25,0,0,0,0,20,0,40,0,0,0,0,1000,66.50563093,False,1.842389284,C14_LAVES,0.630801369,1620.866339,Ta40 Fe25 Ni20 Cr15 
1545,0,25,0,0,0,0,40,0,0,0,0,0,20,0,0,15,1000,156.819583,False,41.22901895,C14_LAVES,0.903411994,1002.04864,Mn40 Co25 Ti20 Zr15 
1546,0,0,25,30,0,0,15,0,10,0,0,0,0,20,0,0,1000,559.2356983,False,23.75229017,BCC_B2,0.507122744,950.481641,Cu30 Cr25 V20 Mn15 Nb10 
1549,10,0,0,0,0,0,25,0,40,10,0,0,15,0,0,0,1000,419.2148712,False,9.841989148,C14_LAVES,0.344127942,1006.550792,Nb40 Mn25 Ti15 Al10 Ni10 
1550,0,0,45,0,10,0,0,0,0,0,0,5,0,10,0,30,1000,100.8011529,False,15.18303648,C15_LAVES,1.0,1524.907331,Cr45 Zr30 Fe10 V10 Ta5 
1551,0,30,35,0,0,0,0,0,0,0,15,0,0,0,0,20,1000,288.3509397,False,10.48242714,C14_LAVES,0.603368491,1290.506925,Cr35 Co30 Zr20 Si15 
1553,0,0,0,0,0,20,0,0,0,40,15,25,0,0,0,0,1000,412.0896889,False,6.234130396,C16_THETA,0.476392771,820.4918635,Ni40 Ta25 Hf20 Si15 
1554,0,0,0,0,15,20,0,0,0,0,10,45,10,0,0,0,1000,1093.356368,False,17.63172474,C14_LAVES,0.45423774,1078.916673,Ta45 Hf20 Fe15 Si10 Ti10 
1557,0,0,0,0,20,0,45,0,0,10,15,0,10,0,0,0,1000,1947.947049,False,12.85300314,CUB_A13,0.517594668,1052.052951,Mn45 Fe20 Si15 Ni10 Ti10 
1559,0,0,5,0,0,20,35,0,0,0,0,0,10,30,0,0,1000,157.719849,False,31.64341705,BCC_B2,0.605547276,1283.944827,Mn35 V30 Hf20 Ti10 Cr5 
1560,0,0,0,0,0,40,0,0,5,0,15,25,0,0,0,15,1000,498.0936234,False,15.99718747,BCC_B2#2,0.550009687,1759.421609,Hf40 Ta25 Si15 Zr15 Nb5 
1561,0,0,0,10,15,0,0,0,5,45,0,0,25,0,0,0,1000,231.1370307,False,6.078511026,T6CUNITI,0.361296048,1118.457198,Ni45 Ti25 Fe15 Cu10 Nb5 
1563,45,0,0,0,0,25,10,0,20,0,0,0,0,0,0,0,1000,57.22846861,False,3.778623361,C14_LAVES,0.615324896,1420.418388,Al45 Hf25 Nb20 Mn10 
1565,25,0,5,10,0,0,0,0,0,15,0,0,0,45,0,0,1000,490.6249681,False,0.725766903,BCC_B2,0.553267793,1135.522385,V45 Al25 Ni15 Cu10 Cr5 
1567,0,30,0,10,10,0,40,0,0,0,10,0,0,0,0,0,1000,98.80739531,False,70.82113758,FCC_L12#2,1.0,960.753127,Mn40 Co30 Cu10 Fe10 Si10 
1574,0,15,0,40,0,0,0,0,0,0,15,0,0,30,0,0,1000,742.4836334,False,63.0372419,FCC_L12,0.403205991,870.4717262,Cu40 V30 Co15 Si15 
1576,0,0,0,0,0,0,15,0,0,15,0,0,25,0,0,45,1000,257.5175417,False,14.78821166,C14_LAVES,0.401222698,778.1038507,Zr45 Ti25 Mn15 Ni15 
1578,15,0,0,15,0,0,10,0,0,0,0,30,30,0,0,0,1000,1053.538164,False,4.996331184,SIGMA,0.43510105,801.4675105,Ta30 Ti30 Al15 Cu15 Mn10 
1581,0,0,0,10,25,25,0,0,0,0,20,20,0,0,0,0,1000,916.3239344,False,18.07819158,C14_LAVES,0.372028248,976.2912601,Fe25 Hf25 Si20 Ta20 Cu10 
1582,0,10,0,0,30,0,25,0,0,10,25,0,0,0,0,0,1000,894.1704321,False,21.26941364,BCC_B2,0.583999788,931.9204939,Fe30 Mn25 Si25 Co10 Ni10 
1583,0,0,35,0,0,0,10,0,15,25,0,0,0,0,0,15,1000,535.9537396,False,6.619923506,C14_LAVES,0.564199997,1060.856103,Cr35 Ni25 Nb15 Zr15 Mn10 
1585,0,0,20,0,0,0,10,0,40,30,0,0,0,0,0,0,1000,237.4588063,False,4.784662521,C14_LAVES,1.0,1233.87674,Nb40 Ni30 Cr20 Mn10 
1586,0,0,0,25,20,0,0,0,0,0,35,0,5,0,0,15,1000,825.3486045,False,26.06999973,MSI_B27,0.284110909,995.5140017,Si35 Cu25 Fe20 Zr15 Ti5 
1587,10,15,30,25,0,0,0,0,0,0,0,0,20,0,0,0,1000,355.7657336,False,5.664558928,C14_LAVES,0.462716974,987.8463192,Cr30 Cu25 Ti20 Co15 Al10 
1588,0,0,35,0,0,15,0,0,0,0,5,15,0,30,0,0,1000,131.0846757,False,15.32407298,C15_LAVES,0.604753137,1516.638142,Cr35 V30 Hf15 Ta15 Si5 
1589,0,5,0,0,0,0,0,0,0,0,20,20,40,0,0,15,1000,634.4732393,False,23.18390686,M3SI,0.799051803,1210.390762,Ti40 Si20 Ta20 Zr15 Co5 
1594,5,20,0,0,0,0,0,0,0,25,0,20,30,0,0,0,1000,497.6956394,False,6.22346988,BCC_B2#2,0.65144402,926.2550609,Ti30 Ni25 Co20 Ta20 Al5 
1595,0,0,0,0,0,0,0,0,25,10,0,0,35,30,0,0,1000,483.2821841,False,34.53868166,BCC_B2,0.871423785,1135.10585,Ti35 V30 Nb25 Ni10 
1596,20,0,30,0,0,20,0,0,0,10,0,0,0,0,0,20,1000,614.8215016,False,1.155144066,C14_LAVES,0.719722635,1106.857892,Cr30 Al20 Hf20 Zr20 Ni10 
1597,0,0,0,25,15,0,25,0,10,0,0,0,0,25,0,0,1000,392.8058289,False,55.13049818,BCC_B2,0.493769148,914.838811,Cu25 Mn25 V25 Fe15 Nb10 
1599,0,0,0,0,15,0,0,0,35,0,15,0,0,0,0,35,1000,500.8542561,False,50.13741312,M3SI,0.59761027,1341.065574,Nb35 Zr35 Fe15 Si15 
1601,0,30,0,0,0,30,0,0,10,0,10,20,0,0,0,0,1000,312.3146224,False,18.97322191,BCC_B2#2,0.484270221,1343.354286,Co30 Hf30 Ta20 Nb10 Si10 
1602,0,0,0,0,25,0,0,0,0,30,5,25,0,15,0,0,1000,279.3546493,False,10.22381906,C14_LAVES,0.359135033,1135.995744,Ni30 Fe25 Ta25 V15 Si5 
1603,0,30,0,0,0,10,0,0,0,40,0,20,0,0,0,0,1000,125.7798108,False,7.800870143,C15_LAVES,0.635732207,1318.714941,Ni40 Co30 Ta20 Hf10 
1604,0,25,0,0,20,0,20,0,0,0,0,0,0,20,0,15,1000,77.6053961,False,53.88643845,BCC_B2,0.55620957,1132.024323,Co25 Fe20 Mn20 V20 Zr15 
1605,0,0,0,0,10,40,0,0,0,0,30,0,0,20,0,0,1000,927.5636805,False,34.49225174,M3SI2_D5A,0.665374559,1295.082788,Hf40 Si30 V20 Fe10 
1607,0,0,45,0,0,0,5,0,15,0,25,0,10,0,0,0,1000,751.9516463,False,13.45162707,C14_LAVES,0.496816798,1190.565481,Cr45 Si25 Nb15 Ti10 Mn5 
1608,0,5,0,20,30,0,0,0,0,0,20,0,25,0,0,0,1000,518.9657158,False,32.30884812,C14_LAVES,0.739268559,998.0629281,Fe30 Ti25 Cu20 Si20 Co5 
1611,0,25,0,15,0,0,0,0,30,0,0,0,0,0,0,30,1000,651.0898692,False,49.29732658,BCC_B2#2,0.500325488,914.5212269,Nb30 Zr30 Co25 Cu15 
1613,0,40,20,0,0,0,0,0,10,0,0,20,0,10,0,0,1000,191.6098174,False,17.95170758,C15_LAVES,0.457762159,1245.722962,Co40 Cr20 Ta20 Nb10 V10 
1614,10,0,40,0,0,0,0,0,0,10,5,0,35,0,0,0,1000,588.5223021,False,1.88836796,C15_LAVES,0.541031861,1139.509425,Cr40 Ti35 Al10 Ni10 Si5 
1616,0,10,0,0,30,0,0,0,0,35,0,25,0,0,0,0,1000,219.9531948,False,5.173764312,C14_LAVES,0.569681188,1315.930995,Ni35 Fe30 Ta25 Co10 
1618,20,10,0,10,0,0,0,0,15,0,0,45,0,0,0,0,1000,868.015467,False,6.256969015,SIGMA,0.403172452,1076.935345,Ta45 Al20 Nb15 Co10 Cu10 
1620,0,0,5,0,0,10,25,0,25,0,0,0,35,0,0,0,1000,31.14337522,False,35.98208768,BCC_B2,0.623922366,1393.275417,Ti35 Mn25 Nb25 Hf10 Cr5 
1622,25,0,20,0,0,0,0,0,0,0,20,0,35,0,0,0,1000,603.2689275,False,3.509704767,M5SI3_D88,0.521961358,1297.685749,Ti35 Al25 Cr20 Si20 
1623,15,35,10,0,0,0,0,0,0,0,40,0,0,0,0,0,1000,149.2677813,False,0.818099405,BCC_B2#2,0.686744483,1431.807307,Si40 Co35 Al15 Cr10 
1624,30,0,0,0,10,0,0,0,20,0,0,20,0,20,0,0,1000,190.7822495,False,10.5633587,BCC_B2,0.532686227,1593.38772,Al30 Nb20 Ta20 V20 Fe10 
1626,0,0,25,15,30,10,0,0,0,0,20,0,0,0,0,0,1000,375.2318225,False,6.295765193,G_PHASE,0.475901547,952.7673768,Fe30 Cr25 Si20 Cu15 Hf10 
1627,0,0,0,0,0,0,0,0,0,35,15,30,10,0,0,10,1000,597.6351003,False,5.894182011,C14_LAVES,0.58392538,1433.753805,Ni35 Ta30 Si15 Ti10 Zr10 
1628,0,0,0,25,20,0,0,0,20,35,0,0,0,0,0,0,1000,239.2383275,False,9.982983765,C14_LAVES,0.513983477,1175.048631,Ni35 Cu25 Fe20 Nb20 
1629,35,40,0,0,0,0,10,0,0,0,15,0,0,0,0,0,1000,315.1218076,False,1.609534849,BCC_B2#2,1.0,1353.346035,Co40 Al35 Si15 Mn10 
1631,0,0,0,15,15,0,40,0,0,20,10,0,0,0,0,0,1000,2067.963701,False,12.04497105,MN3NI2SI,0.527838013,932.0362995,Mn40 Ni20 Cu15 Fe15 Si10 
1633,15,0,0,0,15,5,0,0,0,40,0,0,0,0,0,25,1000,288.8896292,False,1.149094068,HEUSLER_L21,0.594951866,945.3782405,Ni40 Zr25 Al15 Fe15 Hf5 
1634,5,0,10,20,0,0,45,0,0,0,0,0,0,0,0,20,1000,674.2820983,False,12.4826805,C14_LAVES,0.422203509,756.0414036,Mn45 Cu20 Zr20 Cr10 Al5 
1635,0,30,10,10,0,0,25,0,0,0,0,0,0,0,0,25,1000,421.4324995,False,30.80717961,C14_LAVES,0.430080225,835.3113681,Co30 Mn25 Zr25 Cr10 Cu10 
1638,0,10,0,0,0,45,0,0,10,0,0,0,0,0,0,35,1000,281.9319008,False,21.2641683,BCC_B2#2,0.503617873,1449.878085,Hf45 Zr35 Co10 Nb10 
1639,25,0,15,25,0,0,0,0,0,0,30,0,5,0,0,0,1000,897.3769741,False,0.79995015,ALCU_EPS,0.412605528,677.2296566,Si30 Al25 Cu25 Cr15 Ti5 
1642,0,25,20,30,0,0,0,0,0,0,25,0,0,0,0,0,1000,287.5029719,False,10.69417723,CO2SI_C23,0.469509978,1029.020421,Cu30 Co25 Si25 Cr20 
1646,0,0,0,0,0,0,0,0,0,25,20,30,5,20,0,0,1000,602.5196297,False,13.4277535,CR3SI_A15,0.27478549,977.0067064,Ta30 Ni25 Si20 V20 Ti5 
1647,0,30,15,40,0,0,10,0,0,5,0,0,0,0,0,0,1000,209.6046453,False,5.858883189,FCC_L12,0.525545987,1019.352524,Cu40 Co30 Cr15 Mn10 Ni5 
1648,0,10,5,20,0,0,0,0,0,0,0,40,0,25,0,0,1000,718.8847021,False,29.80196789,BCC_B2,0.348017877,1083.914301,Ta40 V25 Cu20 Co10 Cr5 
1653,15,10,0,0,0,0,30,0,5,0,40,0,0,0,0,0,1000,565.8221262,False,3.501018649,FESI_B20,0.538477616,952.5971246,Si40 Mn30 Al15 Co10 Nb5 
1654,0,0,30,0,30,0,0,0,0,0,0,30,10,0,0,0,1000,174.2761282,False,4.288670002,C14_LAVES,1.0,1578.140988,Cr30 Fe30 Ta30 Ti10 
1657,40,20,0,25,0,0,0,0,0,0,0,0,15,0,0,0,1000,404.1734456,False,1.751615662,BCC_B2,0.387547273,962.8598097,Al40 Cu25 Co20 Ti15 
1658,45,25,0,0,0,0,15,0,10,0,0,0,0,0,0,5,1000,368.074952,False,1.002631661,BCC_B2#2,0.593489912,1155.920863,Al45 Co25 Mn15 Nb10 Zr5 
1659,0,15,35,0,0,0,0,0,0,0,25,20,5,0,0,0,1000,283.1802022,False,6.128877651,C14_LAVES,0.713269763,1271.754722,Cr35 Si25 Ta20 Co15 Ti5 
1660,5,10,0,0,0,0,0,0,0,15,0,25,45,0,0,0,1000,371.6849287,False,6.079288184,BCC_B2,0.369439216,876.0806359,Ti45 Ta25 Ni15 Co10 Al5 
1661,0,0,0,20,0,25,25,0,0,0,0,10,20,0,0,0,1000,639.6140007,False,22.65926137,MOSI2_C11B,0.561368209,819.2995266,Hf25 Mn25 Cu20 Ti20 Ta10 
1662,0,0,0,20,0,30,0,0,20,0,30,0,0,0,0,0,1000,1033.301955,False,27.35564098,M3SI2_D5A,0.395514921,997.7102204,Hf30 Si30 Cu20 Nb20 
1664,10,0,25,0,0,0,0,0,0,15,0,5,0,45,0,0,1000,268.6022991,False,2.725292867,BCC_B2,0.853529646,1430.388012,V45 Cr25 Ni15 Al10 Ta5 
1666,20,0,0,15,25,0,10,0,0,30,0,0,0,0,0,0,1000,298.7453961,False,0.330517208,BCC_B2#3,0.871486555,1064.053436,Ni30 Fe25 Al20 Cu15 Mn10 
1667,0,10,0,15,0,45,30,0,0,0,0,0,0,0,0,0,1000,637.3021255,False,30.19619106,C14_LAVES,0.446012159,869.2113348,Hf45 Mn30 Cu15 Co10 
1672,0,0,20,0,0,0,0,0,0,30,40,10,0,0,0,0,1000,604.6207087,False,1.697174081,M4SI3,0.727340997,637.9910271,Si40 Ni30 Cr20 Ta10 
1677,0,0,40,0,15,0,0,0,0,0,0,15,0,30,0,0,1000,79.25163362,False,15.53057173,BCC_B2,0.950566053,1595.095262,Cr40 V30 Fe15 Ta15 
1680,35,0,20,0,0,0,0,0,0,0,15,30,0,0,0,0,1000,288.4300088,False,0.739742939,C14_LAVES,0.285599148,1259.546793,Al35 Ta30 Cr20 Si15 
1681,0,0,0,0,40,0,0,0,0,10,0,25,25,0,0,0,1000,573.6027193,False,11.23147784,BCC_B2#2,0.422979755,986.4496412,Fe40 Ta25 Ti25 Ni10 
1682,0,0,0,0,10,0,5,0,45,10,0,0,30,0,0,0,1000,556.1797697,False,23.4442336,BCC_B2,0.534859566,1013.862835,Nb45 Ti30 Fe10 Ni10 Mn5 
1683,0,0,30,0,0,0,0,0,30,0,0,10,0,25,0,5,1000,323.6665127,False,40.87124106,BCC_B2#2,1.0,1459.848362,Cr30 Nb30 V25 Ta10 Zr5 
1685,0,35,0,0,0,0,10,0,0,0,5,10,40,0,0,0,1000,164.3789996,False,25.67164224,BCC_B2#2,0.745008931,1084.126785,Ti40 Co35 Mn10 Ta10 Si5 
1686,0,10,0,0,0,25,20,0,5,40,0,0,0,0,0,0,1000,410.1772815,False,6.241729246,BCC_B2#2,0.780302203,873.422024,Ni40 Hf25 Mn20 Co10 Nb5 
1689,0,15,0,0,0,0,0,0,35,0,0,20,0,0,0,30,1000,904.4025771,False,35.7493352,BCC_B2,0.554769001,1098.842149,Nb35 Zr30 Ta20 Co15 
1691,0,0,0,0,0,0,0,0,0,0,0,25,40,10,0,25,1000,188.8897739,False,35.03619844,BCC_B2,1.0,1606.347343,Ti40 Ta25 Zr25 V10 
1695,0,30,0,0,0,0,0,0,15,20,35,0,0,0,0,0,1000,77.82667783,False,10.40597911,CO2SI_C23,0.75,1162.646113,Si35 Co30 Ni20 Nb15 
1696,15,0,0,0,0,40,0,0,0,0,30,15,0,0,0,0,1000,734.0459863,False,3.299032114,ZR5SI4_TP36,0.447396335,1543.114841,Hf40 Si30 Al15 Ta15 
1697,15,0,0,30,0,0,0,0,0,0,0,25,0,0,0,30,1000,1167.685651,False,3.28077317,SIGMA,0.173078786,827.9792558,Cu30 Zr30 Ta25 Al15 
1698,0,0,0,0,5,20,0,0,25,0,20,0,30,0,0,0,1000,660.4809614,False,32.9331816,M3SI,0.466755794,986.8694652,Ti30 Nb25 Hf20 Si20 Fe5 
1702,0,20,0,0,15,0,0,0,0,0,20,0,0,0,0,45,1000,547.6540405,False,30.75630062,C15_LAVES,0.563384719,1295.962464,Zr45 Co20 Si20 Fe15 
1703,0,0,25,0,0,0,0,0,0,10,0,0,25,40,0,0,1000,471.1858808,False,9.839616825,BCC_B2,0.806026827,1148.70645,V40 Cr25 Ti25 Ni10 
1704,0,20,0,0,0,15,0,0,0,0,20,0,10,35,0,0,1000,717.4279116,False,28.42249582,BCC_B2#2,0.396732795,1023.509715,V35 Co20 Si20 Hf15 Ti10 
1705,0,10,15,15,0,0,0,0,0,0,30,30,0,0,0,0,1000,634.3726238,False,8.152931519,C14_LAVES#2,0.789136722,903.361282,Si30 Ta30 Cr15 Cu15 Co10 
1707,0,0,0,0,20,0,5,0,0,0,0,45,0,15,0,15,1000,818.499543,False,30.81662426,BCC_B2,0.521419375,1060.462183,Ta45 Fe20 V15 Zr15 Mn5 
1715,20,0,20,0,0,0,10,0,15,0,0,0,0,35,0,0,1000,80.17870867,False,11.81614029,BCC_B2,1.0,1612.230558,V35 Al20 Cr20 Nb15 Mn10 
1716,0,0,0,0,0,5,15,0,0,40,0,0,15,25,0,0,1000,213.7740831,False,13.46780431,FCC_L12#2,0.6989374,886.5909631,Ni40 V25 Mn15 Ti15 Hf5 
1720,0,10,20,0,0,0,0,0,35,25,0,0,0,0,0,10,1000,601.8675264,False,6.315078414,C14_LAVES,0.517123446,934.0969189,Nb35 Ni25 Cr20 Co10 Zr10 
1724,30,0,10,0,0,0,0,0,10,0,45,5,0,0,0,0,1000,1110.240541,False,0.988987004,CRSI2_C40#2,0.318453006,600.0,Si45 Al30 Cr10 Nb10 Ta5 
1725,25,0,0,0,0,0,0,0,35,0,0,0,30,0,0,10,1000,152.5159005,False,21.53446399,BCC_B2#2,1.0,1667.493737,Nb35 Ti30 Al25 Zr10 
1728,0,10,20,10,0,0,0,0,0,0,0,0,25,0,0,35,1000,554.4461473,False,20.28789029,C15_LAVES,0.320399252,743.6798121,Zr35 Ti25 Cr20 Co10 Cu10 
1729,40,0,10,15,0,0,0,0,35,0,0,0,0,0,0,0,1000,789.2984855,False,2.799135664,C14_LAVES,0.445561249,978.0365852,Al40 Nb35 Cu15 Cr10 
1732,0,10,35,0,0,0,0,0,0,10,20,25,0,0,0,0,1000,540.20684,False,2.402866016,CR3SI_A15,0.400726385,899.8079349,Cr35 Ta25 Si20 Co10 Ni10 
1733,25,20,0,20,0,0,5,0,0,0,0,0,0,0,0,30,1000,645.8982173,False,2.459415521,C14_LAVES,0.746237796,653.9771524,Zr30 Al25 Co20 Cu20 Mn5 
1735,0,25,40,15,0,0,0,0,0,0,15,5,0,0,0,0,1000,417.9430196,False,5.985255989,CR3SI_A15,0.374825702,979.9949983,Cr40 Co25 Cu15 Si15 Ta5 
1739,0,10,0,25,0,0,20,0,10,35,0,0,0,0,0,0,1000,144.7525931,False,6.959314053,FCC_L12,0.757204869,1078.69231,Ni35 Cu25 Mn20 Co10 Nb10 
1740,0,15,15,0,15,0,20,0,0,0,35,0,0,0,0,0,1000,546.5153293,False,11.68936085,FESI_B20,0.373798047,798.4837177,Si35 Mn20 Co15 Cr15 Fe15 
1743,0,0,0,0,30,0,10,0,0,0,30,0,0,30,0,0,1000,506.7988382,False,67.05880781,BCC_B2#2,0.586668564,1057.759954,Fe30 Si30 V30 Mn10 
1744,0,5,0,0,30,0,10,0,10,0,0,0,0,0,0,45,1000,482.6178432,False,26.96952475,C14_LAVES,0.746342996,925.5039599,Zr45 Fe30 Mn10 Nb10 Co5 
1746,0,0,0,0,35,15,0,0,30,0,0,20,0,0,0,0,1000,153.5455741,False,24.40181128,C14_LAVES,0.612151965,1545.141726,Fe35 Nb30 Ta20 Hf15 
1747,5,10,0,0,0,20,0,0,20,0,0,0,0,0,0,45,1000,228.1325726,False,21.52478125,BCC_B2,0.667370826,1433.487423,Zr45 Hf20 Nb20 Co10 Al5 
1748,40,0,0,0,20,0,0,0,0,30,0,0,0,10,0,0,1000,15.93742105,False,0.521351719,BCC_B2,1.0,1539.923707,Al40 Ni30 Fe20 V10 
1752,35,0,0,0,0,10,0,0,0,0,0,25,0,0,0,30,1000,315.3045362,False,2.134244203,AL2ZR3,0.664481013,1386.871179,Al35 Zr30 Ta25 Hf10 
1753,0,0,10,0,0,20,0,0,45,0,5,0,0,20,0,0,1000,351.4973582,False,46.60526297,BCC_B2,0.856608707,1443.218839,Nb45 Hf20 V20 Cr10 Si5 
1754,0,0,10,0,0,0,0,0,20,45,0,10,0,0,0,15,1000,486.2754927,False,8.60949332,MU_PHASE,0.61108903,903.4778061,Ni45 Nb20 Zr15 Cr10 Ta10 
1755,25,35,0,0,0,25,15,0,0,0,0,0,0,0,0,0,1000,641.2980776,False,2.573125806,C14_LAVES,0.742730317,1197.453077,Co35 Al25 Hf25 Mn15 
1756,0,0,0,0,40,0,0,0,0,0,0,0,10,30,0,20,1000,165.0701661,False,41.57929012,C15_LAVES,0.774201274,1171.397495,Fe40 V30 Zr20 Ti10 
1757,15,0,0,25,0,0,0,0,25,0,0,0,10,0,0,25,1000,920.0079169,False,19.8896389,BCC_B2#2,0.539524649,785.5029651,Cu25 Nb25 Zr25 Al15 Ti10 
1759,0,0,0,35,30,0,0,0,0,0,0,0,15,0,0,20,1000,474.8720933,False,25.62817085,CU51ZR14,0.440011847,874.4857535,Cu35 Fe30 Zr20 Ti15 
1761,15,25,0,0,0,0,30,0,0,0,0,30,0,0,0,0,1000,670.3791056,False,3.674073152,C14_LAVES,0.669325624,1035.475239,Mn30 Ta30 Co25 Al15 
1762,0,0,20,0,0,0,0,0,30,0,0,0,15,15,0,20,1000,327.9916513,False,72.66246685,BCC_B2#2,0.943406945,1293.469491,Nb30 Cr20 Zr20 Ti15 V15 
1763,0,0,40,0,10,0,0,0,0,30,0,0,20,0,0,0,1000,326.4391839,False,2.208609019,BCC_B2#2,0.517517402,1115.977481,Cr40 Ni30 Ti20 Fe10 
1765,10,0,30,0,0,0,0,0,5,0,0,15,0,40,0,0,1000,38.95655767,False,12.16788146,BCC_B2,1.0,1711.170389,V40 Cr30 Ta15 Al10 Nb5 
1766,0,0,20,0,0,15,0,0,25,0,0,0,0,0,0,40,1000,203.5515159,False,26.70828542,BCC_B2#2,0.819880192,1376.224312,Zr40 Nb25 Cr20 Hf15 
1767,20,0,5,0,30,0,30,0,15,0,0,0,0,0,0,0,1000,139.1981118,False,3.846108754,BCC_B2,0.651692074,1419.279384,Fe30 Mn30 Al20 Nb15 Cr5 
1769,30,15,0,0,0,0,0,0,5,0,40,10,0,0,0,0,1000,866.7028,False,1.354582004,CRSI2_C40,0.450011501,800.1579954,Si40 Al30 Co15 Ta10 Nb5 
1770,0,25,0,0,0,0,10,0,0,0,0,20,0,0,0,45,1000,285.1285662,False,19.68087403,C16_THETA,0.740055893,979.5195883,Zr45 Co25 Ta20 Mn10 
1772,0,0,0,40,5,0,0,0,0,10,35,0,0,0,0,10,1000,628.8626781,False,8.493603082,CU6NISI3,0.618875772,885.5625367,Cu40 Si35 Ni10 Zr10 Fe5 
1773,0,0,25,30,0,0,10,0,0,35,0,0,0,0,0,0,1000,103.3151499,False,1.962897211,FCC_L12,0.496815254,1091.879105,Ni35 Cu30 Cr25 Mn10 
1775,15,0,10,40,0,0,0,0,0,20,0,0,0,0,0,15,1000,493.0228094,False,0.857244034,FCC_L12,0.475884368,994.1198617,Cu40 Ni20 Al15 Zr15 Cr10 
1778,0,25,30,25,10,0,0,0,0,10,0,0,0,0,0,0,1000,171.2675307,False,3.113982871,FCC_L12#2,0.609447698,1097.779669,Cr30 Co25 Cu25 Fe10 Ni10 
1779,0,25,0,0,10,0,0,0,0,30,0,0,35,0,0,0,1000,205.1120882,False,10.05449232,BCC_B2#2,0.735697249,1117.64136,Ti35 Ni30 Co25 Fe10 
1780,20,0,35,0,0,0,0,0,0,0,35,10,0,0,0,0,1000,272.5649202,False,1.31921168,W5SI3_D8M,0.473978681,1130.145177,Cr35 Si35 Al20 Ta10 
1782,0,0,0,0,0,25,0,0,0,10,0,25,15,0,0,25,1000,1043.256451,False,13.26242839,HCP_A3,0.420137207,757.3049923,Hf25 Ta25 Zr25 Ti15 Ni10 
1783,0,0,30,0,15,0,0,0,20,5,0,30,0,0,0,0,1000,102.9586516,False,8.971377935,C14_LAVES,0.519210627,1696.595638,Cr30 Ta30 Nb20 Fe15 Ni5 
1785,15,0,35,0,0,0,0,0,5,25,0,0,20,0,0,0,1000,284.7668845,False,0.86199867,HEUSLER_L21,0.392720398,1195.297979,Cr35 Ni25 Ti20 Al15 Nb5 
1786,0,0,0,0,15,0,0,0,0,25,30,20,0,0,0,10,1000,760.08617,False,6.117544654,C14_LAVES,0.326833761,764.7324372,Si30 Ni25 Ta20 Fe15 Zr10 
1787,0,0,0,0,0,25,5,0,25,0,0,0,10,0,0,35,1000,233.3270579,False,40.13816685,BCC_B2#2,1.0,1544.421247,Zr35 Hf25 Nb25 Ti10 Mn5 
1788,0,0,0,0,0,40,0,0,0,0,30,15,0,0,0,15,1000,592.2464595,False,16.20309851,C16_THETA,0.747194425,2037.134746,Hf40 Si30 Ta15 Zr15 
1790,0,0,30,0,0,0,0,0,25,10,0,0,35,0,0,0,1000,417.0795897,False,12.30304422,BCC_B2#3,0.542996452,1015.355468,Ti35 Cr30 Nb25 Ni10 
1792,0,0,0,0,0,0,0,0,15,0,45,0,20,0,0,20,1000,349.2633802,False,67.74689824,ZR5SI4_TP36,0.975000038,1882.788928,Si45 Ti20 Zr20 Nb15 
1795,0,0,0,0,0,15,30,0,0,0,25,20,10,0,0,0,1000,1115.763545,False,17.67919439,C14_LAVES,0.438697587,833.729088,Mn30 Si25 Ta20 Hf15 Ti10 
1797,0,5,0,15,10,25,0,0,0,0,45,0,0,0,0,0,1000,787.0552928,False,28.71348992,MSI_B27,0.411008724,923.0066241,Si45 Hf25 Cu15 Fe10 Co5 