,Al,Co,Cr,Cu,Fe,Hf,Mn,Mo,Nb,Ni,Si,Ta,Ti,V,W,Zr,T (C),freeze_range,literature,mass_change,max_phase,max_phase_fraction,solidus,composition
3321,35,0,0,0,0,0,0,0,20,5,0,25,0,15,0,0,1000,307.6297535,False,5.41051253,MU_PHASE,0.570963287,1694.470462,Al35 Ta25 Nb20 V15 Ni5 
3322,10,30,15,25,0,0,0,0,0,0,0,0,0,0,0,20,1000,340.6029799,False,6.340048641,C15_LAVES,0.63570581,1045.802597,Co30 Cu25 Zr20 Cr15 Al10 
3323,0,0,0,0,15,0,10,0,0,0,35,40,0,0,0,0,1000,803.304234,False,24.44759134,TA5SI3_D8L,0.416054595,983.6182645,Ta40 Si35 Fe15 Mn10 
3324,10,0,0,30,0,0,0,0,0,20,5,0,0,0,0,35,1000,495.4013458,False,3.327615302,BCC_B2#2,0.461236273,950.2611603,Zr35 Cu30 Ni20 Al10 Si5 
3328,0,0,45,10,10,0,0,0,0,0,0,0,0,0,0,35,1000,691.2655975,False,8.954912575,C15_LAVES,0.825908024,886.3227338,Cr45 Zr35 Cu10 Fe10 
3329,0,30,0,0,0,0,30,0,15,0,10,15,0,0,0,0,1000,481.3152382,False,33.21463495,C14_LAVES#2,0.560402187,788.2680567,Co30 Mn30 Nb15 Ta15 Si10 
3330,35,0,10,0,0,0,0,0,0,0,0,0,30,0,0,25,1000,133.8000495,False,2.48193996,C14_LAVES,0.365047664,1485.739352,Al35 Ti30 Zr25 Cr10 
3331,0,0,15,30,0,40,0,0,0,15,0,0,0,0,0,0,1000,491.7547589,False,3.60324039,BCC_B2#2,0.374841328,941.2625951,Hf40 Cu30 Cr15 Ni15 
3333,0,0,0,0,0,15,25,0,15,0,40,0,5,0,0,0,1000,887.4711859,False,28.92461375,ZR5SI4_TP36,0.400081329,1040.116576,Si40 Mn25 Hf15 Nb15 Ti5 
3334,0,0,25,0,25,10,0,0,0,0,0,25,0,0,0,15,1000,348.6854488,False,7.901594502,C15_LAVES,0.895603837,1406.154401,Cr25 Fe25 Ta25 Zr15 Hf10 
3341,0,0,20,0,0,25,0,0,0,0,0,0,15,40,0,0,1000,85.54757178,False,19.34722616,C15_LAVES,0.624870295,1342.529394,V40 Hf25 Cr20 Ti15 
3342,0,0,0,0,15,0,40,0,30,0,15,0,0,0,0,0,1000,525.3728022,False,49.11554835,CUB_A13,0.38019463,1040.289992,Mn40 Nb30 Fe15 Si15 
3347,0,0,0,15,30,0,0,0,0,0,30,20,0,5,0,0,1000,305.2190956,False,28.13088162,C14_LAVES,0.575469519,982.7875079,Fe30 Si30 Ta20 Cu15 V5 
3348,0,35,15,30,0,0,10,0,0,10,0,0,0,0,0,0,1000,188.2784965,False,4.443431067,FCC_L12,0.622541814,1043.017695,Co35 Cu30 Cr15 Mn10 Ni10 
3351,0,0,0,0,40,5,0,0,30,0,15,0,0,0,0,10,1000,141.8328977,False,31.11596957,C15_LAVES,0.611944073,1454.897852,Fe40 Nb30 Si15 Zr10 Hf5 
3353,35,0,0,35,10,0,0,0,0,15,0,0,0,0,0,5,1000,243.875447,False,0.094703263,BCC_B2#2,1.0,950.4948325,Al35 Cu35 Ni15 Fe10 Zr5 
3355,0,45,0,20,0,0,20,0,0,0,0,15,0,0,0,0,1000,359.3957436,False,27.84484457,FCC_L12#2,0.536894033,980.2792626,Co45 Cu20 Mn20 Ta15 
3356,15,0,0,0,0,0,10,0,25,0,0,0,10,40,0,0,1000,125.8690491,False,24.38430723,BCC_B2,1.0,1550.62804,V40 Nb25 Al15 Mn10 Ti10 
3358,20,10,0,0,15,0,0,0,15,0,0,0,0,0,0,40,1000,247.4821639,False,11.23604457,C14_LAVES,0.587470692,899.9145421,Zr40 Al20 Fe15 Nb15 Co10 
3361,0,0,0,40,10,0,30,0,20,0,0,0,0,0,0,0,1000,482.1170622,False,47.92966335,C14_LAVES,0.531226784,945.3854765,Cu40 Mn30 Nb20 Fe10 
3364,0,15,15,0,0,0,30,0,0,35,0,0,0,0,0,5,1000,134.9992848,False,2.261414466,FCC_L12,0.776839553,1018.362255,Ni35 Mn30 Co15 Cr15 Zr5 
3365,20,0,0,0,0,0,0,0,0,0,20,30,0,0,0,30,1000,1203.447124,False,2.32610176,C14_LAVES,0.638958663,1453.245071,Ta30 Zr30 Al20 Si20 
3366,0,15,40,0,0,0,5,0,15,0,25,0,0,0,0,0,1000,850.3618802,False,15.50733608,M11SI8,0.500129476,1007.690451,Cr40 Si25 Co15 Nb15 Mn5 
3368,0,0,40,0,0,10,0,0,40,0,0,0,0,0,0,10,1000,158.4614676,False,18.65205071,BCC_B2,0.501807981,1478.175055,Cr40 Nb40 Hf10 Zr10 
3371,0,0,0,10,0,0,40,0,0,0,0,20,30,0,0,0,1000,425.4856992,False,23.12806154,C14_LAVES,0.517808106,841.5337608,Mn40 Ti30 Ta20 Cu10 
3374,0,0,0,0,15,0,0,0,20,5,20,0,40,0,0,0,1000,643.2864403,False,22.27324443,M3SI,0.463428741,1107.444552,Ti40 Nb20 Si20 Fe15 Ni5 
3375,0,0,15,10,0,30,0,0,0,0,0,0,45,0,0,0,1000,185.5616055,False,13.36854755,BCC_B2#2,0.552818735,1054.280613,Ti45 Hf30 Cr15 Cu10 
3377,0,20,0,20,15,0,10,0,0,0,0,0,0,0,0,35,1000,463.4838003,False,37.38453329,C14_LAVES,0.495039636,858.5812746,Zr35 Co20 Cu20 Fe15 Mn10 
3378,0,0,0,0,0,15,0,0,15,0,0,0,15,20,0,35,1000,144.5006582,False,76.38449108,BCC_B2#2,1.0,1422.510389,Zr35 V20 Hf15 Nb15 Ti15 
3379,20,0,0,0,0,0,0,0,0,0,5,30,35,10,0,0,1000,585.521577,False,3.453207031,BCC_B2#2,0.863807665,1430.385918,Ti35 Ta30 Al20 V10 Si5 
3381,0,0,20,0,0,0,0,0,15,15,0,0,35,15,0,0,1000,282.2106453,False,14.21862703,BCC_B2,0.679224147,1095.120177,Ti35 Cr20 Nb15 Ni15 V15 
3382,0,0,0,0,15,0,0,0,40,0,0,20,0,0,0,25,1000,806.5817759,False,35.49987079,BCC_B2,0.538439907,1192.290066,Nb40 Zr25 Ta20 Fe15 
3386,20,0,0,0,0,30,5,0,20,0,0,0,0,25,0,0,1000,164.5021273,False,12.33309285,BCC_B2,1.0,1423.093353,Hf30 V25 Al20 Nb20 Mn5 
3390,0,0,0,0,0,0,30,0,10,35,25,0,0,0,0,0,1000,1688.988724,False,7.064319431,MN52NI29SI19,0.406583669,1311.011276,Ni35 Mn30 Si25 Nb10 
3392,0,0,10,40,0,15,0,0,0,25,0,0,0,0,0,10,1000,227.2023784,False,4.715929734,NI5ZR_C15B,0.587266308,1047.259892,Cu40 Ni25 Hf15 Cr10 Zr10 
3394,0,0,20,0,15,0,20,0,5,0,0,0,40,0,0,0,1000,314.6732363,False,12.05191121,C14_LAVES,0.800811832,1144.503715,Ti40 Cr20 Mn20 Fe15 Nb5 
3396,0,15,20,0,10,15,0,0,0,0,0,0,40,0,0,0,1000,313.6699873,False,11.37044986,C14_LAVES,0.414184698,1023.493905,Ti40 Cr20 Co15 Hf15 Fe10 
3397,0,0,20,0,0,0,0,0,35,0,20,15,0,0,0,10,1000,134.7953451,False,27.08616672,M3SI,0.506726814,1784.12335,Nb35 Cr20 Si20 Ta15 Zr10 
3398,0,20,0,0,25,0,0,0,20,15,0,0,0,20,0,0,1000,181.8727635,False,26.19142679,C15_LAVES,0.506831937,1109.198361,Fe25 Co20 Nb20 V20 Ni15 
3400,0,15,0,25,30,0,0,0,0,0,20,0,0,10,0,0,1000,93.0687823,False,52.80936667,BCC_B2#2,0.544826618,986.1293427,Fe30 Cu25 Si20 Co15 V10 
3404,0,5,0,0,0,0,0,0,15,25,0,20,0,0,0,35,1000,645.2536557,False,10.96938539,C16_THETA,0.55641362,1039.715788,Zr35 Ni25 Ta20 Nb15 Co5 
3405,0,15,0,0,40,0,0,0,0,15,0,0,25,5,0,0,1000,253.6685264,False,16.39025071,C14_LAVES,0.618111177,1064.330996,Fe40 Ti25 Co15 Ni15 V5 
3406,0,35,0,0,0,0,0,0,0,5,15,15,0,30,0,0,1000,550.6345778,False,21.36546397,C14_LAVES,0.450346208,845.8627461,Co35 V30 Si15 Ta15 Ni5 
3410,0,0,0,10,0,0,45,0,0,15,5,0,25,0,0,0,1000,671.0768702,False,12.58372935,FCC_L12,0.67447297,797.1952781,Mn45 Ti25 Ni15 Cu10 Si5 
3411,0,0,0,0,0,0,0,0,40,5,0,15,0,10,0,30,1000,1127.021131,False,27.07100214,BCC_B2,0.730821534,953.4252508,Nb40 Zr30 Ta15 V10 Ni5 
3412,30,10,0,0,0,45,0,0,0,0,0,15,0,0,0,0,1000,401.1692204,False,1.603657638,ALZR,0.365737923,1189.448844,Hf45 Al30 Ta15 Co10 
3413,0,35,20,0,0,25,0,0,15,5,0,0,0,0,0,0,1000,205.7275488,False,7.30768123,BCC_B2#2,0.468061655,1433.995337,Co35 Hf25 Cr20 Nb15 Ni5 
3417,0,0,0,35,10,0,15,0,0,0,25,0,0,0,0,15,1000,870.6729433,False,37.26807531,FCC_L12,0.415749783,865.4875174,Cu35 Si25 Mn15 Zr15 Fe10 
3418,25,0,0,0,5,0,0,0,0,0,0,30,30,10,0,0,1000,822.9486129,False,3.129734841,BCC_B2#2,0.398508213,1151.981281,Ta30 Ti30 Al25 V10 Fe5 
3420,25,40,0,0,0,20,10,0,0,0,0,0,5,0,0,0,1000,742.7724593,False,3.019123474,C14_LAVES,0.425513113,1074.982567,Co40 Al25 Hf20 Mn10 Ti5 
3421,0,15,0,0,25,45,10,0,0,0,0,5,0,0,0,0,1000,421.8959756,False,17.52172227,C14_LAVES,0.547000966,1265.070324,Hf45 Fe25 Co15 Mn10 Ta5 
3422,30,0,0,0,0,0,0,0,10,25,0,10,25,0,0,0,1000,533.9217444,False,0.786484503,C14_LAVES,0.372900361,1056.558645,Al30 Ni25 Ti25 Nb10 Ta10 
3423,5,35,15,0,0,0,0,0,30,0,0,0,15,0,0,0,1000,529.8694012,False,19.09990626,C14_LAVES,0.691039696,1109.16408,Co35 Nb30 Cr15 Ti15 Al5 
3424,5,0,0,0,0,0,10,0,0,0,40,10,35,0,0,0,1000,852.634242,False,15.93965145,ZR5SI4_TP36,0.62653699,979.2032289,Si40 Ti35 Mn10 Ta10 Al5 
3427,0,0,10,35,5,0,0,0,0,0,0,0,25,25,0,0,1000,506.772561,False,50.51001739,T4CUFETI,0.611933699,898.6904469,Cu35 Ti25 V25 Cr10 Fe5 
3428,0,20,0,0,45,0,20,0,10,0,0,0,5,0,0,0,1000,147.0008682,False,28.10519184,C14_LAVES,0.415870584,1193.434663,Fe45 Co20 Mn20 Nb10 Ti5 
3429,0,0,0,45,10,0,0,0,15,10,0,0,0,0,0,20,1000,357.4690911,False,15.54648187,BCC_B2#2,0.275029207,1079.330909,Cu45 Zr20 Nb15 Fe10 Ni10 
3430,0,0,0,15,0,30,0,0,0,0,20,35,0,0,0,0,1000,1311.624778,False,18.80588567,C14_LAVES,0.780079158,1096.647995,Ta35 Hf30 Si20 Cu15 
3433,0,5,20,0,15,0,0,0,15,0,45,0,0,0,0,0,1000,845.4446324,False,16.82564722,M6SI5,0.625883154,1144.095742,Si45 Cr20 Fe15 Nb15 Co5 
3434,0,0,15,0,40,0,0,0,15,0,0,0,0,0,0,30,1000,348.835873,False,26.74736943,C15_LAVES,0.55283349,1267.214094,Fe40 Zr30 Cr15 Nb15 
3436,0,0,0,20,0,40,15,0,10,0,15,0,0,0,0,0,1000,1022.717199,False,21.5801065,C16_THETA,0.449861425,874.8893559,Hf40 Cu20 Mn15 Si15 Nb10 
3438,5,0,0,0,0,0,25,0,0,25,0,10,0,35,0,0,1000,317.3490303,False,10.57498622,BCC_B2,0.691894775,1005.586857,V35 Mn25 Ni25 Ta10 Al5 
3440,45,0,0,0,0,15,0,0,20,10,10,0,0,0,0,0,1000,651.5061596,False,0.938023789,C14_LAVES,0.506268708,1061.444531,Al45 Nb20 Hf15 Ni10 Si10 
3442,0,0,0,0,0,0,0,0,15,0,25,35,0,15,0,10,1000,787.5903047,False,41.75198144,TA5SI3_D8L,0.307073166,1646.002195,Ta35 Si25 Nb15 V15 Zr10 
3443,0,15,0,0,0,0,20,0,35,0,25,0,0,0,0,5,1000,990.9312358,False,30.35958388,TA5SI3_D8L,0.555351342,857.3362678,Nb35 Si25 Mn20 Co15 Zr5 
3444,0,0,0,20,0,0,0,0,0,20,0,35,25,0,0,0,1000,596.3999455,False,9.428580654,C16_THETA,0.590360128,910.1533603,Ta35 Ti25 Cu20 Ni20 
3447,0,5,0,0,0,0,15,0,0,30,0,0,10,40,0,0,1000,209.4535556,False,15.19430855,FCC_L12,0.558313849,999.9604752,V40 Ni30 Mn15 Ti10 Co5 
3448,0,0,20,10,0,0,0,0,0,10,20,0,0,0,0,40,1000,729.4475473,False,5.050652271,C14_LAVES#2,0.536274999,1080.875812,Zr40 Cr20 Si20 Cu10 Ni10 
3449,0,20,0,0,0,0,10,0,0,0,0,40,30,0,0,0,1000,500.7453337,False,21.87561853,C16_THETA,0.337212304,997.0066003,Ta40 Ti30 Co20 Mn10 
3451,30,0,30,30,0,0,0,0,10,0,0,0,0,0,0,0,1000,769.0530048,False,1.017587642,GAMMA_H,0.44244872,980.0648783,Al30 Cr30 Cu30 Nb10 
3452,20,0,0,15,0,40,0,0,0,0,0,15,0,10,0,0,1000,855.2829965,False,4.069076968,MOSI2_C11B,0.426389348,835.9996249,Hf40 Al20 Cu15 Ta15 V10 
3453,25,0,15,0,35,0,0,0,15,0,0,0,0,0,0,10,1000,453.0009394,False,4.486916372,C14_LAVES#2,0.442412089,1298.218064,Fe35 Al25 Cr15 Nb15 Zr10 
3454,0,0,10,20,0,0,0,0,0,0,40,30,0,0,0,0,1000,765.1222006,False,21.45555633,C14_LAVES,0.651508089,946.188869,Si40 Ta30 Cu20 Cr10 
3455,0,30,0,0,45,10,0,0,10,5,0,0,0,0,0,0,1000,194.7070936,False,11.14710045,C15_LAVES,0.598692528,1295.243743,Fe45 Co30 Hf10 Nb10 Ni5 
3457,0,0,0,15,0,30,0,0,0,0,0,0,15,40,0,0,1000,245.1717503,False,28.68604492,BCC_B2,0.532391193,1145.154952,V40 Hf30 Cu15 Ti15 
3458,0,0,35,20,0,0,0,0,0,0,0,15,0,0,0,30,1000,814.5541375,False,9.824737103,C15_LAVES,0.530081073,887.7294129,Cr35 Zr30 Cu20 Ta15 
3459,0,0,25,0,0,0,20,0,45,0,0,10,0,0,0,0,1000,62.43189759,False,20.88854695,C14_LAVES,0.698070971,1573.946647,Nb45 Cr25 Mn20 Ta10 
3460,10,0,0,0,0,35,0,0,0,0,10,40,5,0,0,0,1000,717.3364286,False,7.302938497,BCC_B2#2,0.509770534,1641.333117,Ta40 Hf35 Al10 Si10 Ti5 
3461,0,35,0,0,5,0,30,0,0,0,20,0,10,0,0,0,1000,163.1158112,False,35.97518095,FCC_L12#2,0.692372755,699.9942142,Co35 Mn30 Si20 Ti10 Fe5 
3463,0,0,0,35,15,10,0,0,0,0,0,40,0,0,0,0,1000,844.5566097,False,19.11614659,CU51HF14,0.425659316,988.7025728,Ta40 Cu35 Fe15 Hf10 
3465,15,0,0,0,0,10,45,0,0,0,0,0,20,10,0,0,1000,233.6385713,False,9.363704004,C14_LAVES,0.597845786,1184.805199,Mn45 Ti20 Al15 Hf10 V10 
3466,0,0,0,0,0,0,0,0,20,0,5,25,25,0,0,25,1000,570.3964391,False,48.98007347,BCC_B2#2,0.800006094,1493.590416,Ta25 Ti25 Zr25 Nb20 Si5 
3469,0,10,10,35,0,10,0,0,0,35,0,0,0,0,0,0,1000,83.53229922,False,4.486890088,CUB_A13,0.526181832,1119.424818,Cu35 Ni35 Co10 Cr10 Hf10 
3471,15,0,0,10,0,0,0,0,0,0,25,10,0,40,0,0,1000,832.1244512,False,6.309515164,W5SI3_D8M,0.639972789,944.4121338,V40 Si25 Al15 Cu10 Ta10 
3474,0,40,25,25,10,0,0,0,0,0,0,0,0,0,0,0,1000,217.2425648,False,7.698551199,FCC_L12#2,0.639819629,1084.884778,Co40 Cr25 Cu25 Fe10 
3476,0,10,0,10,0,0,0,0,0,35,30,0,0,15,0,0,1000,317.5983711,False,16.3782504,NI31SI12,0.467377091,1072.875306,Ni35 Si30 V15 Co10 Cu10 
3477,0,20,5,0,0,0,20,0,35,0,0,0,20,0,0,0,1000,215.0696202,False,36.99568822,C14_LAVES,0.574894516,1065.151694,Nb35 Co20 Mn20 Ti20 Cr5 
3478,0,0,0,0,45,0,0,0,0,15,5,25,0,10,0,0,1000,676.7748239,False,13.67463445,C14_LAVES,0.755424775,889.3789836,Fe45 Ta25 Ni15 V10 Si5 
3480,25,10,0,0,0,0,0,0,45,0,20,0,0,0,0,0,1000,782.6227406,False,4.410780705,TA5SI3_D8L,0.514916221,1244.553509,Nb45 Al25 Si20 Co10 
3481,0,0,30,0,0,0,10,0,40,0,0,0,0,0,0,20,1000,180.3906715,False,28.79330455,C14_LAVES,0.583582795,1357.382854,Nb40 Cr30 Zr20 Mn10 
3483,0,0,0,20,40,0,0,0,25,0,0,0,15,0,0,0,1000,534.1649513,False,41.75285333,MU_PHASE,0.442071511,958.8615373,Fe40 Nb25 Cu20 Ti15 
3489,35,0,30,15,0,0,20,0,0,0,0,0,0,0,0,0,1000,463.6596492,False,1.965321564,BCC_B2,0.743055085,908.982916,Al35 Cr30 Mn20 Cu15 
3491,0,0,25,25,0,30,0,0,0,0,15,0,5,0,0,0,1000,710.1348272,False,9.554222402,C14_LAVES,0.478634471,1028.596319,Hf30 Cr25 Cu25 Si15 Ti5 
3495,0,0,0,40,0,0,20,0,15,5,20,0,0,0,0,0,1000,977.5748366,False,21.10800671,FCC_L12,0.278469044,842.6939654,Cu40 Mn20 Si20 Nb15 Ni5 
3496,0,0,20,0,10,0,0,0,30,0,0,0,5,35,0,0,1000,157.3829063,False,44.62531321,BCC_B2#2,1.0,1442.96091,V35 Nb30 Cr20 Fe10 Ti5 
3497,10,5,0,0,20,0,0,0,0,0,0,20,45,0,0,0,1000,429.0779985,False,7.229699631,BCC_B2,0.669246779,1193.364158,Ti45 Fe20 Ta20 Al10 Co5 
3503,10,0,0,0,10,40,0,0,0,0,0,0,0,0,0,40,1000,572.6978668,False,8.300401438,HCP_A3,0.85274106,1100.374416,Hf40 Zr40 Al10 Fe10 
3506,0,0,0,0,5,0,0,0,25,15,0,20,35,0,0,0,1000,809.8996892,False,17.13475569,BCC_B2#2,0.485085892,908.6191223,Ti35 Nb25 Ta20 Ni15 Fe5 
3509,30,0,0,0,15,0,20,0,35,0,0,0,0,0,0,0,1000,246.2111788,False,4.603582335,C14_LAVES,1.0,1331.170932,Nb35 Al30 Mn20 Fe15 
3511,0,0,0,0,0,0,20,0,0,20,0,0,25,15,0,20,1000,215.9385851,False,23.56689457,C14_LAVES,0.444840912,1057.219998,Ti25 Mn20 Ni20 Zr20 V15 
3512,0,30,0,0,0,0,10,0,20,5,0,0,0,35,0,0,1000,76.13988571,False,39.83602975,BCC_B2,0.471323442,1014.533674,V35 Co30 Nb20 Mn10 Ni5 
3513,0,0,0,0,10,25,0,0,15,0,30,0,20,0,0,0,1000,686.8532875,False,26.69430266,M5SI3_D88#2,0.364483982,1307.535853,Si30 Hf25 Ti20 Nb15 Fe10 
3515,0,15,0,40,0,20,25,0,0,0,0,0,0,0,0,0,1000,715.0369529,False,30.12696979,FCC_L12,0.35173535,783.0831388,Cu40 Mn25 Hf20 Co15 
3516,0,0,35,45,10,0,0,0,0,0,0,0,10,0,0,0,1000,439.3300497,False,7.139702173,FCC_L12,0.456153975,978.310054,Cu45 Cr35 Fe10 Ti10 
3517,0,20,20,0,0,0,0,0,20,0,0,0,0,35,0,5,1000,278.0454711,False,36.8661557,BCC_B2,0.695290626,1171.987055,V35 Co20 Cr20 Nb20 Zr5 
3520,20,0,20,5,0,20,35,0,0,0,0,0,0,0,0,0,1000,818.2831989,False,2.962857323,C14_LAVES,0.591741856,754.7675777,Mn35 Al20 Cr20 Hf20 Cu5 
3525,0,0,0,0,0,15,0,0,0,0,35,0,20,25,0,5,1000,543.5204321,False,26.83488808,ZR5SI4_TP36,0.488265597,1555.309858,Si35 V25 Ti20 Hf15 Zr5 
3526,15,25,10,0,0,0,40,0,0,0,10,0,0,0,0,0,1000,502.6203256,False,2.424671566,BCC_B2#2,0.547863136,810.5327198,Mn40 Co25 Al15 Cr10 Si10 
3527,0,0,0,0,45,20,0,0,0,20,0,0,0,0,0,15,1000,664.2323449,False,7.275059217,C15_LAVES,0.888251677,1002.015672,Fe45 Hf20 Ni20 Zr15 
3528,0,0,0,15,0,0,20,0,0,0,40,0,0,0,0,25,1000,1154.22383,False,34.87380525,MSI_B27,0.499999974,803.0056152,Si40 Zr25 Mn20 Cu15 
3529,0,30,0,10,0,0,30,0,0,0,0,0,0,30,0,0,1000,207.1651499,False,73.74683058,FCC_L12#2,0.492919179,929.2318816,Co30 Mn30 V30 Cu10 
3530,30,25,0,0,0,15,0,0,5,0,0,0,25,0,0,0,1000,528.7576689,False,3.317409929,C14_LAVES,0.510339122,1181.194099,Al30 Co25 Ti25 Hf15 Nb5 
3531,20,30,0,0,0,0,0,0,10,25,15,0,0,0,0,0,1000,490.488453,False,0.439885341,BCC_B2#2,0.546078458,982.3879242,Co30 Ni25 Al20 Si15 Nb10 
3533,0,0,20,0,20,0,0,0,40,0,0,0,0,20,0,0,1000,44.72890398,False,44.45387942,BCC_B2,0.688945617,1405.48126,Nb40 Cr20 Fe20 V20 
3536,0,0,10,0,0,30,25,0,10,0,0,0,25,0,0,0,1000,165.969632,False,20.96855065,BCC_B2#2,0.53199689,1381.299653,Hf30 Mn25 Ti25 Cr10 Nb10 
3537,15,0,0,0,0,0,0,0,35,0,0,0,0,25,0,25,1000,273.1490989,False,42.29595483,BCC_B2,1.0,1514.186706,Nb35 V25 Zr25 Al15 
3538,0,0,0,0,0,15,0,0,30,35,0,0,10,10,0,0,1000,361.7456987,False,18.25122987,FCC_L12#2,0.751724504,1101.630911,Ni35 Nb30 Hf15 Ti10 V10 
3541,0,0,0,0,10,20,30,0,25,0,0,0,0,0,0,15,1000,184.5549137,False,37.16321041,C14_LAVES,0.870590975,1336.892599,Mn30 Nb25 Hf20 Zr15 Fe10 
3542,10,0,15,0,15,0,0,0,25,0,0,0,35,0,0,0,1000,202.4006281,False,20.6331815,BCC_B2,0.656341102,1348.765964,Ti35 Nb25 Cr15 Fe15 Al10 
3543,35,40,0,0,0,10,5,0,0,0,0,0,0,0,0,10,1000,629.745452,False,2.465923709,HEUSLER_L21,0.585038253,1134.724479,Co40 Al35 Hf10 Zr10 Mn5 
3545,0,0,0,15,0,30,0,0,0,0,0,5,25,0,0,25,1000,413.018986,False,25.25241892,BCC_B2#2,0.61581518,1106.966632,Hf30 Ti25 Zr25 Cu15 Ta5 
3546,0,0,25,0,0,0,0,0,40,20,0,0,15,0,0,0,1000,325.7957831,False,6.269309962,C14_LAVES,0.386406366,1144.376357,Nb40 Cr25 Ni20 Ti15 
3547,0,35,0,0,0,15,10,0,0,0,0,0,0,20,0,20,1000,357.5282281,False,30.06043115,BCC_B2#3,0.380958387,1078.324929,Co35 V20 Zr20 Hf15 Mn10 
3553,0,0,0,15,25,0,0,0,15,0,0,0,0,10,0,35,1000,337.4027319,False,64.53696319,C14_LAVES,0.318983659,922.8335951,Zr35 Fe25 Cu15 Nb15 V10 
3554,0,25,0,0,0,0,0,0,0,40,0,0,0,15,0,20,1000,150.7827206,False,16.20641228,NI7ZR2,0.503444504,1115.712606,Ni40 Co25 Zr20 V15 
3556,0,0,15,15,0,0,0,0,0,25,0,35,0,10,0,0,1000,288.0709644,False,4.856983494,C15_LAVES,0.504620653,1085.070919,Ta35 Ni25 Cr15 Cu15 V10 
3559,30,10,0,0,20,40,0,0,0,0,0,0,0,0,0,0,1000,217.6059365,False,1.008322986,C14_LAVES,0.734252983,1194.84037,Hf40 Al30 Fe20 Co10 
3560,0,45,0,0,15,0,0,0,0,0,20,0,15,5,0,0,1000,64.77342013,False,45.00357268,C14_LAVES,0.436450223,782.6397593,Co45 Si20 Fe15 Ti15 V5 
3562,0,0,0,0,0,0,0,0,15,0,0,30,0,30,0,25,1000,596.3109342,False,52.54298318,BCC_B2,1.0,1455.85938,Ta30 V30 Zr25 Nb15 
3565,40,0,0,0,0,0,20,0,0,0,20,0,0,20,0,0,1000,428.4682128,False,4.8465552,ALMNSI_T8,0.280309289,964.2488629,Al40 Mn20 Si20 V20 
3567,0,0,0,0,0,0,15,0,35,0,0,0,0,15,0,35,1000,462.7125436,False,83.17354615,BCC_B2#2,0.852211589,1142.360518,Nb35 Zr35 Mn15 V15 
3568,0,45,0,0,0,25,0,0,0,0,0,0,0,15,0,15,1000,335.6838738,False,28.69941024,C15_LAVES,0.476963548,1167.254583,Co45 Hf25 V15 Zr15 
3569,0,0,5,10,35,0,0,0,0,0,0,20,0,30,0,0,1000,388.3541107,False,27.09954373,C15_LAVES,0.579267557,1085.940017,Fe35 V30 Ta20 Cu10 Cr5 
3570,0,25,0,0,20,30,10,0,0,0,0,0,15,0,0,0,1000,345.5012421,False,19.9735281,BCC_B2#2,0.492551517,1130.293383,Hf30 Co25 Fe20 Ti15 Mn10 
3571,0,0,5,15,0,0,25,0,30,0,0,0,0,25,0,0,1000,555.211415,False,88.58942224,BCC_B2,0.64197029,923.3566625,Nb30 Mn25 V25 Cu15 Cr5 
3572,0,0,15,0,35,15,0,0,0,30,0,0,5,0,0,0,1000,301.3050939,False,2.111547748,C15_LAVES,0.328312097,1038.935885,Fe35 Ni30 Cr15 Hf15 Ti5 
3574,0,0,10,35,30,20,0,0,0,0,0,0,5,0,0,0,1000,491.6827636,False,20.29282084,C14_LAVES,0.563214769,1002.427585,Cu35 Fe30 Hf20 Cr10 Ti5 
3577,0,0,0,0,0,40,0,0,0,30,0,0,20,10,0,0,1000,119.8685728,False,12.8562003,C16_THETA,0.449707141,938.3723971,Hf40 Ni30 Ti20 V10 
3579,0,0,5,35,0,35,0,0,0,0,10,0,0,15,0,0,1000,764.7275553,False,34.04100523,CU10HF7,0.281141391,955.0667896,Cu35 Hf35 V15 Si10 Cr5 
3580,0,0,0,15,20,0,15,0,0,10,0,0,0,0,0,40,1000,449.0846575,False,12.06899825,C14_LAVES,0.513066823,911.9344586,Zr40 Fe20 Cu15 Mn15 Ni10 
3582,0,0,20,0,5,0,0,0,0,0,45,20,10,0,0,0,1000,562.9727445,False,7.259853531,C14_LAVES,0.733936944,1195.329545,Si45 Cr20 Ta20 Ti10 Fe5 
3583,0,15,30,0,0,25,0,0,0,25,5,0,0,0,0,0,1000,587.3288046,False,1.974276501,BCC_B2#2,0.355932113,994.4053297,Cr30 Hf25 Ni25 Co15 Si5 
3584,0,0,15,0,0,0,0,0,25,0,0,15,0,0,0,45,1000,473.2853238,False,32.99035643,BCC_B2#2,0.883101847,1373.78307,Zr45 Nb25 Cr15 Ta15 
3586,0,45,0,0,0,0,0,0,0,0,25,15,0,15,0,0,1000,400.0882339,False,32.48192976,C14_LAVES,0.449887478,919.6780918,Co45 Si25 Ta15 V15 
3587,0,10,0,10,0,0,0,0,40,25,0,15,0,0,0,0,1000,534.1994846,False,11.46910815,MU_PHASE,0.64461594,1094.744194,Nb40 Ni25 Ta15 Co10 Cu10 
3588,0,10,0,0,0,0,0,0,0,40,0,30,0,0,0,20,1000,506.0636312,False,4.913252576,MU_PHASE,0.582216349,944.8618412,Ni40 Ta30 Zr20 Co10 
3589,0,0,0,0,0,0,0,0,25,0,45,0,20,0,0,10,1000,313.721204,False,61.7253043,ZR5SI4_TP36,0.906312435,1847.913934,Si45 Nb25 Ti20 Zr10 
3590,0,0,35,0,0,10,10,0,0,0,0,0,15,0,0,30,1000,323.1267479,False,12.83613934,C14_LAVES,0.462201298,1234.464878,Cr35 Zr30 Ti15 Hf10 Mn10 
3591,0,0,20,0,0,20,30,0,30,0,0,0,0,0,0,0,1000,177.1185828,False,16.84102952,C14_LAVES,0.764992697,1551.046758,Mn30 Nb30 Cr20 Hf20 
3592,0,0,20,0,0,15,30,0,0,0,0,35,0,0,0,0,1000,126.4381146,False,11.08888575,C14_LAVES,0.784860207,1639.96877,Ta35 Mn30 Cr20 Hf15 