,Al,Co,Cr,Cu,Fe,Hf,Mn,Mo,Nb,Ni,Si,Ta,Ti,V,W,Zr,T (C),freeze_range,literature,mass_change,max_phase,max_phase_fraction,solidus,composition
517,0,0,0,0,0,0,0,0,35,0,5,30,0,20,0,10,1000,561.1388878,False,52.98129244,BCC_B2,0.800589014,1714.332319,Nb35 Ta30 V20 Zr10 Si5 
520,0,25,0,0,20,0,30,0,0,0,0,0,0,25,0,0,1000,57.00483018,False,72.71536184,BCC_B2,0.952926134,1165.359776,Mn30 Co25 V25 Fe20 
522,0,0,0,10,40,0,0,0,5,0,20,0,25,0,0,0,1000,393.7394198,False,23.36306632,C14_LAVES,0.931134514,1074.0,Fe40 Ti25 Si20 Cu10 Nb5 
523,0,0,0,0,25,0,0,0,0,0,25,20,0,0,0,30,1000,1104.559659,False,17.22471292,C14_LAVES,0.373421196,1454.060788,Zr30 Fe25 Si25 Ta20 
524,20,0,0,0,0,25,40,0,0,0,0,0,0,15,0,0,1000,121.0879988,False,6.691072447,C14_LAVES,0.616135521,1391.384876,Mn40 Hf25 Al20 V15 
525,0,0,0,0,0,0,30,0,20,0,0,0,5,30,0,15,1000,188.8542126,False,76.75550452,BCC_B2,0.723620877,1182.618224,Mn30 V30 Nb20 Zr15 Ti5 
527,0,0,0,0,15,0,35,0,10,0,0,0,0,40,0,0,1000,117.0262565,False,55.13049818,BCC_B2,1.0,1321.549753,V40 Mn35 Fe15 Nb10 
529,0,10,0,0,0,40,0,0,15,15,20,0,0,0,0,0,1000,863.4017267,False,10.44838167,BCC_B2#2,0.471402918,1004.71064,Hf40 Si20 Nb15 Ni15 Co10 
531,25,0,0,10,0,10,0,0,0,0,0,10,0,0,0,45,1000,807.1246039,False,2.952811942,AL2ZR3,0.589348989,747.2431867,Zr45 Al25 Cu10 Hf10 Ta10 
532,10,35,0,0,0,0,0,0,15,0,0,0,0,40,0,0,1000,96.48572189,False,35.93246143,BCC_B2#2,0.527372186,1202.977329,V40 Co35 Nb15 Al10 
533,0,0,0,0,0,0,45,0,10,0,25,0,20,0,0,0,1000,844.875726,False,26.47138068,CUB_A13,0.519061114,1010.602958,Mn45 Si25 Ti20 Nb10 
534,0,0,20,0,0,35,25,0,0,0,0,0,20,0,0,0,1000,342.6694928,False,9.937127988,C14_LAVES,0.639440991,1363.530849,Hf35 Mn25 Cr20 Ti20 
536,10,0,0,0,45,10,0,0,0,20,0,0,0,15,0,0,1000,197.7410496,False,5.470665331,BCC_B2,0.672422401,1175.868544,Fe45 Ni20 V15 Al10 Hf10 
537,0,0,0,0,0,30,10,0,0,45,0,10,5,0,0,0,1000,516.216637,False,6.988510245,NI11ZR9,0.61840644,600.0,Ni45 Hf30 Mn10 Ta10 Ti5 
538,5,0,0,25,0,10,0,0,0,0,0,0,40,20,0,0,1000,669.7810632,False,21.75701486,MOSI2_C11B,0.50974474,745.8637585,Ti40 Cu25 V20 Hf10 Al5 
539,10,0,35,0,0,0,0,0,20,5,0,30,0,0,0,0,1000,115.8836783,False,5.512542353,C14_LAVES,0.824951887,1710.879259,Cr35 Ta30 Nb20 Al10 Ni5 
540,0,0,10,0,0,0,10,0,20,30,0,30,0,0,0,0,1000,110.4969863,False,8.948532233,MU_PHASE,0.618860341,1181.631905,Ni30 Ta30 Nb20 Cr10 Mn10 
541,0,15,0,0,0,35,0,0,0,0,35,0,10,5,0,0,1000,1005.004368,False,25.76762013,ZR5SI4_TP36,0.578423749,1020.274862,Hf35 Si35 Co15 Ti10 V5 
543,25,0,0,5,0,0,0,0,10,30,0,0,0,30,0,0,1000,42.38328813,False,0.768435874,BCC_B2#2,1.0,1366.518309,Ni30 V30 Al25 Nb10 Cu5 
544,0,0,0,15,20,0,0,0,0,10,20,35,0,0,0,0,1000,579.386054,False,11.29586498,C14_LAVES,0.402355472,730.8170119,Ta35 Fe20 Si20 Cu15 Ni10 
545,20,45,5,0,0,15,15,0,0,0,0,0,0,0,0,0,1000,499.0083065,False,1.979068882,BCC_B2#2,0.486747822,1225.10088,Co45 Al20 Hf15 Mn15 Cr5 
546,0,0,0,0,30,15,0,0,0,0,0,0,25,0,0,30,1000,134.5861835,False,26.37631287,BCC_B2,0.694018699,981.4787041,Fe30 Zr30 Ti25 Hf15 
549,0,0,5,0,15,45,0,0,0,0,10,0,0,25,0,0,1000,480.9182866,False,35.61621286,C15_LAVES,0.686019406,1293.842438,Hf45 V25 Fe15 Si10 Cr5 
551,0,15,0,35,10,0,0,0,0,40,0,0,0,0,0,0,1000,66.71023232,False,9.614064031,FCC_L12#2,1.0,1283.587332,Ni40 Cu35 Co15 Fe10 
552,15,0,15,0,0,0,25,0,0,25,0,20,0,0,0,0,1000,546.1446105,False,0.798760846,C14_LAVES,0.591849874,1006.021993,Mn25 Ni25 Ta20 Al15 Cr15 
555,15,0,0,25,0,40,0,0,0,0,15,0,0,0,0,5,1000,1529.514346,False,1.432012863,C16_THETA,0.454714676,600.0,Hf40 Cu25 Al15 Si15 Zr5 
556,0,0,25,0,15,20,15,0,0,25,0,0,0,0,0,0,1000,429.8343223,False,2.677865689,C15_LAVES,0.599199027,961.1087174,Cr25 Ni25 Hf20 Fe15 Mn15 
560,0,0,15,30,0,10,0,0,0,40,5,0,0,0,0,0,1000,193.6613405,False,1.758086703,NI5ZR_C15B,0.431786774,988.4689124,Ni40 Cu30 Cr15 Hf10 Si5 
561,0,0,0,0,0,45,0,0,25,0,0,0,0,15,0,15,1000,185.2850333,False,48.74800301,BCC_B2,1.0,1639.249181,Hf45 Nb25 V15 Zr15 
565,15,40,30,0,0,0,0,0,15,0,0,0,0,0,0,0,1000,338.2443607,False,6.944239569,BCC_B2#2,0.545407975,1340.553596,Co40 Cr30 Al15 Nb15 
569,0,20,15,0,0,0,0,0,0,10,15,0,40,0,0,0,1000,412.0953363,False,4.646064219,C14_LAVES,0.535173484,1208.67404,Ti40 Co20 Cr15 Si15 Ni10 
571,30,0,25,0,0,0,0,0,20,0,0,0,25,0,0,0,1000,168.8659443,False,6.564691655,BCC_B2,0.526489505,1660.646195,Al30 Cr25 Ti25 Nb20 
572,0,0,25,35,20,0,0,0,0,0,20,0,0,0,0,0,1000,383.9587482,False,6.994698311,CR3SI_A15,0.342594704,1034.167762,Cu35 Cr25 Fe20 Si20 
573,25,0,15,0,0,0,0,0,0,5,25,0,0,0,0,30,1000,789.1086892,False,0.427383375,C14_LAVES,0.675950576,1046.820472,Zr30 Al25 Si25 Cr15 Ni5 
574,0,0,0,15,30,0,20,0,0,0,0,0,0,30,0,5,1000,462.6574026,False,45.44844578,BCC_B2,0.676594397,822.7550652,Fe30 V30 Mn20 Cu15 Zr5 
578,10,0,0,0,0,0,0,0,0,0,0,45,10,0,0,35,1000,846.8081791,False,6.826005262,BCC_B2#2,0.474633612,1300.728499,Ta45 Zr35 Al10 Ti10 
579,0,0,0,40,0,0,5,0,0,0,10,0,25,20,0,0,1000,966.7188046,False,56.17886815,CR3SI_A15,0.400952073,772.1148765,Cu40 Ti25 V20 Si10 Mn5 
580,20,15,40,0,0,0,0,0,0,0,0,0,25,0,0,0,1000,321.8344516,False,4.764718612,BCC_B2#2,0.512056611,1206.222057,Cr40 Ti25 Al20 Co15 
582,0,0,0,25,45,0,0,0,0,10,0,0,0,10,0,10,1000,189.2365357,False,16.83065772,BCC_B2,0.458221005,1045.236844,Fe45 Cu25 Ni10 V10 Zr10 
583,0,0,0,15,30,0,35,0,0,0,0,0,20,0,0,0,1000,376.2723227,False,32.41065496,C14_LAVES,0.575788125,879.0491894,Mn35 Fe30 Ti20 Cu15 
585,10,5,0,25,0,0,30,0,0,0,0,0,0,30,0,0,1000,497.4301229,False,21.23303372,BCC_B2#2,0.721906103,937.7862558,Mn30 V30 Cu25 Al10 Co5 
586,0,0,20,0,0,15,0,0,0,0,0,15,0,10,0,40,1000,61.81934616,False,18.79124687,BCC_B2#2,0.517824507,1409.221298,Zr40 Cr20 Hf15 Ta15 V10 
588,10,0,40,0,0,15,0,0,0,20,15,0,0,0,0,0,1000,311.8351365,False,1.222460659,CR3SI_A15,0.473502755,1142.703392,Cr40 Ni20 Hf15 Si15 Al10 
590,0,0,0,0,25,40,20,0,0,0,0,0,0,0,0,15,1000,357.0881118,False,20.2237358,C14_LAVES,0.689865199,1219.831995,Hf40 Fe25 Mn20 Zr15 
592,20,0,0,0,0,35,5,0,0,0,0,0,20,0,0,20,1000,132.0626727,False,10.17405135,BCC_B2#2,0.697023969,1213.127539,Hf35 Al20 Ti20 Zr20 Mn5 
593,0,0,0,0,0,0,15,0,45,20,0,15,0,5,0,0,1000,640.0114577,False,19.54396125,BCC_B2,0.385144961,1015.627568,Nb45 Ni20 Mn15 Ta15 V5 
597,0,0,0,0,40,0,20,0,0,5,0,20,15,0,0,0,1000,722.0363091,False,12.95008755,C14_LAVES,0.974347893,843.8394452,Fe40 Mn20 Ta20 Ti15 Ni5 
601,0,40,0,5,0,30,0,0,10,0,0,0,15,0,0,0,1000,663.9959821,False,17.15732063,BCC_B2#2,0.770414767,887.5663655,Co40 Hf30 Ti15 Nb10 Cu5 
603,0,0,0,15,15,0,0,0,10,40,20,0,0,0,0,0,1000,124.4143607,False,5.615742572,NI31SI12,0.277317121,965.7215246,Ni40 Si20 Cu15 Fe15 Nb10 
605,10,0,0,20,0,10,0,0,0,0,0,0,0,20,0,40,1000,578.2637974,False,15.01992122,MOSI2_C11B,0.48883419,797.0032659,Zr40 Cu20 V20 Al10 Hf10 
606,0,0,0,35,0,0,0,0,0,30,0,15,0,0,0,20,1000,353.5362708,False,6.59091788,NI5ZR_C15B,0.526844284,903.5884135,Cu35 Ni30 Zr20 Ta15 
607,0,0,40,15,35,0,0,0,0,0,0,0,0,10,0,0,1000,428.3254484,False,14.94133074,SIGMA,0.719863239,1080.895112,Cr40 Fe35 Cu15 V10 
608,0,0,45,0,20,5,0,0,0,0,0,15,15,0,0,0,1000,147.3374223,False,6.631864869,C14_LAVES,1.0,1601.73151,Cr45 Fe20 Ta15 Ti15 Hf5 
609,0,5,10,0,0,45,30,0,0,0,0,0,0,10,0,0,1000,582.0558195,False,36.3695433,C14_LAVES,0.442010009,1054.486959,Hf45 Mn30 Cr10 V10 Co5 
611,20,0,15,0,0,0,0,0,0,0,0,0,45,20,0,0,1000,181.9621348,False,3.934374806,BCC_B2#2,0.798810421,1282.639797,Ti45 Al20 V20 Cr15 
612,0,0,0,15,0,0,0,0,0,30,0,0,25,0,0,30,1000,307.833849,False,12.47138606,BCC_B2#2,1.0,1500.147022,Ni30 Zr30 Ti25 Cu15 
614,0,0,0,0,0,0,10,0,45,0,0,25,20,0,0,0,1000,759.8623709,False,36.47230527,BCC_B2,0.980834933,1457.494679,Nb45 Ta25 Ti20 Mn10 
616,0,45,0,0,0,15,0,0,0,20,0,0,0,20,0,0,1000,156.232893,False,15.87528372,C15_LAVES,0.279417016,1163.116456,Co45 Ni20 V20 Hf15 
617,0,10,15,35,25,15,0,0,0,0,0,0,0,0,0,0,1000,400.369129,False,7.588877168,C15_LAVES,0.419308613,964.4253492,Cu35 Fe25 Cr15 Hf15 Co10 
618,0,0,30,0,0,0,0,0,0,0,0,25,35,0,0,10,1000,225.4517789,False,11.05517405,BCC_B2,0.681683381,1386.454798,Ti35 Cr30 Ta25 Zr10 
619,30,0,0,0,0,30,0,0,0,20,0,0,20,0,0,0,1000,310.3371419,False,0.63859784,FCC_L12,0.432133844,710.4865248,Al30 Hf30 Ni20 Ti20 
620,0,0,0,0,0,0,0,0,45,0,10,0,25,5,0,15,1000,266.9230971,False,98.53994406,BCC_B2,0.607931649,1481.36252,Nb45 Ti25 Zr15 Si10 V5 
621,25,0,0,0,0,5,20,0,0,40,0,0,0,0,0,10,1000,142.1902183,False,0.436599221,HEUSLER_L21,0.552004002,1039.286281,Ni40 Al25 Mn20 Zr10 Hf5 
622,0,10,0,0,0,35,0,0,15,0,0,40,0,0,0,0,1000,1476.385121,False,22.74142879,BCC_B2,0.700591904,1159.731966,Ta40 Hf35 Nb15 Co10 
623,20,0,0,15,45,0,0,0,20,0,0,0,0,0,0,0,1000,523.8790924,False,4.192397265,C14_LAVES,0.589291758,1094.88982,Fe45 Al20 Nb20 Cu15 
624,0,20,20,0,0,0,10,0,25,25,0,0,0,0,0,0,1000,367.77685,False,4.797533635,C14_LAVES,0.721987876,1069.333172,Nb25 Ni25 Co20 Cr20 Mn10 
625,0,0,10,0,0,0,0,0,0,0,35,25,0,0,0,30,1000,1363.569369,False,19.63447446,C14_LAVES#2,0.859148366,1636.106694,Si35 Zr30 Ta25 Cr10 
626,30,0,0,0,0,5,0,0,0,25,0,15,0,25,0,0,1000,393.1550448,False,1.154642019,C14_LAVES,0.574030289,1290.58497,Al30 Ni25 V25 Ta15 Hf5 
627,0,0,20,10,0,40,0,0,15,0,0,15,0,0,0,0,1000,562.1823629,False,17.61684224,BCC_B2,0.387503649,1268.125555,Hf40 Cr20 Nb15 Ta15 Cu10 
628,0,0,45,0,30,0,10,0,0,0,0,15,0,0,0,0,1000,190.6683597,False,4.785013529,BCC_B2,0.579054854,1461.025533,Cr45 Fe30 Ta15 Mn10 
629,0,0,0,0,0,0,0,0,20,0,0,40,30,10,0,0,1000,228.6228739,False,46.41659888,BCC_B2,1.0,2104.800932,Ta40 Ti30 Nb20 V10 
630,0,35,0,0,45,0,0,0,0,0,0,10,10,0,0,0,1000,256.0847376,False,19.59441642,C14_LAVES,0.567896455,1177.741704,Fe45 Co35 Ta10 Ti10 
634,0,0,40,5,0,0,15,0,0,0,0,15,25,0,0,0,1000,722.8477995,False,10.28104467,C14_LAVES,0.84976457,921.5682877,Cr40 Ti25 Mn15 Ta15 Cu5 
635,0,15,0,45,20,0,0,0,0,0,0,0,0,20,0,0,1000,116.2529609,False,59.36514133,BCC_B2,0.558329348,1090.555536,Cu45 Fe20 V20 Co15 
636,0,0,0,10,0,35,20,0,0,0,5,0,0,0,0,30,1000,559.6982338,False,23.63468085,C14_LAVES,0.323035221,1058.697052,Hf35 Zr30 Mn20 Cu10 Si5 
637,10,0,0,0,0,0,0,0,25,0,35,5,0,0,0,25,1000,584.8409188,False,19.06964853,ZR5SI4_TP36,0.442560615,1492.815564,Si35 Nb25 Zr25 Al10 Ta5 
638,10,30,0,0,0,30,0,0,0,0,0,0,0,30,0,0,1000,271.1708454,False,17.23069966,BCC_B2#2,0.446268027,1435.652667,Co30 Hf30 V30 Al10 
639,0,15,0,0,0,40,0,0,0,30,15,0,0,0,0,0,1000,263.0358822,False,7.784346922,BCC_B2#2,0.47098907,1065.716536,Hf40 Ni30 Co15 Si15 
641,0,10,35,0,0,15,0,0,25,0,15,0,0,0,0,0,1000,518.9411092,False,15.03520664,C14_LAVES,0.694518562,1441.771061,Cr35 Nb25 Hf15 Si15 Co10 
642,15,35,0,0,0,0,15,0,35,0,0,0,0,0,0,0,1000,351.668421,False,9.170598668,C14_LAVES,1.0,1363.933656,Co35 Nb35 Al15 Mn15 
643,0,15,40,0,0,15,0,0,0,20,0,0,0,10,0,0,1000,391.4442282,False,3.973334129,BCC_B2,0.510782049,1241.294259,Cr40 Ni20 Co15 Hf15 V10 
648,0,15,0,0,0,5,10,0,0,35,0,0,35,0,0,0,1000,459.6097935,False,8.669096693,BCC_B2#2,0.724680173,907.6580941,Ni35 Ti35 Co15 Mn10 Hf5 
651,35,0,0,20,30,0,15,0,0,0,0,0,0,0,0,0,1000,480.820718,False,1.516267271,BCC_B2#2,1.0,1149.348725,Al35 Fe30 Cu20 Mn15 
654,0,0,0,30,25,20,0,0,0,0,0,0,25,0,0,0,1000,428.9060236,False,21.20895778,BCC_B2#2,0.4408412,893.4706969,Cu30 Fe25 Ti25 Hf20 
655,20,0,5,0,0,0,0,0,25,0,0,10,0,0,0,40,1000,439.4442784,False,12.99147236,BCC_B2#2,0.680536635,1383.383211,Zr40 Nb25 Al20 Ta10 Cr5 
656,0,15,15,0,5,0,0,0,0,0,40,0,0,25,0,0,1000,283.3804702,False,22.77729041,FESI_B20,0.470310765,1264.179,Si40 V25 Co15 Cr15 Fe5 
658,0,0,0,0,25,0,0,0,0,15,10,10,0,40,0,0,1000,173.5139106,False,15.06805554,BCC_B2#2,0.498713043,1132.53761,V40 Fe25 Ni15 Si10 Ta10 
659,25,0,35,0,20,0,0,0,0,0,0,0,0,20,0,0,1000,71.45824381,False,2.511062554,BCC_B2,1.0,1617.520317,Cr35 Al25 Fe20 V20 
660,0,5,30,0,0,0,20,0,20,0,0,0,0,25,0,0,1000,196.0586111,False,48.18116844,BCC_B2,0.75285207,1311.719222,Cr30 V25 Mn20 Nb20 Co5 
661,10,0,0,15,15,0,0,0,0,0,0,0,0,15,0,45,1000,388.3857522,False,18.15469045,C15_LAVES,0.456190684,809.1990859,Zr45 Cu15 Fe15 V15 Al10 
663,0,0,0,0,30,10,0,0,45,0,0,0,0,0,0,15,1000,138.2938305,False,26.83775199,C14_LAVES,0.696711954,1342.772389,Nb45 Fe30 Zr15 Hf10 
665,25,0,5,0,40,0,0,0,15,0,15,0,0,0,0,0,1000,253.5073505,False,3.19935551,BCC_B2#2,0.731333537,1236.446764,Fe40 Al25 Nb15 Si15 Cr5 
666,20,0,0,0,0,0,0,0,35,0,30,0,15,0,0,0,1000,495.9204573,False,8.271608241,TA5SI3_D8L,0.369622457,1462.169812,Nb35 Si30 Al20 Ti15 
670,0,0,45,10,0,15,5,0,0,0,0,0,25,0,0,0,1000,686.493093,False,10.32025289,C14_LAVES,0.752904137,852.2435552,Cr45 Ti25 Hf15 Cu10 Mn5 
671,0,0,15,0,0,0,0,0,30,0,0,0,30,0,0,25,1000,377.5030539,False,57.30751228,BCC_B2#2,0.991571126,1315.218249,Nb30 Ti30 Zr25 Cr15 
672,10,45,0,0,0,0,0,0,20,0,0,0,5,20,0,0,1000,416.1875478,False,36.10094,C14_LAVES,0.595791313,1069.4574,Co45 Nb20 V20 Al10 Ti5 
674,0,0,0,20,0,0,0,0,0,0,35,35,0,10,0,0,1000,836.7666789,False,31.16329786,TA5SI3_D8L,0.514203332,921.0752818,Si35 Ta35 Cu20 V10 
677,0,0,15,0,30,0,0,0,0,0,15,0,0,0,0,40,1000,230.439235,False,9.47917524,C14_LAVES,0.770758081,1529.007911,Zr40 Fe30 Cr15 Si15 
679,5,0,30,0,0,0,0,0,40,0,15,0,0,10,0,0,1000,337.5039278,False,36.6788165,C14_LAVES,0.502126722,1563.007358,Nb40 Cr30 Si15 V10 Al5 
680,0,0,0,0,0,35,0,0,20,25,0,15,0,5,0,0,1000,716.1625173,False,16.0972694,BCC_B2#2,0.664252837,1147.840479,Hf35 Ni25 Nb20 Ta15 V5 
681,10,0,0,10,45,0,0,0,0,0,30,0,5,0,0,0,1000,104.1133966,False,6.256008957,BCC_B2#2,0.573984442,1046.328418,Fe45 Si30 Al10 Cu10 Ti5 
682,0,0,10,0,20,0,35,0,15,0,0,20,0,0,0,0,1000,77.56909797,False,29.11635485,C14_LAVES,1.0,1571.55854,Mn35 Fe20 Ta20 Nb15 Cr10 
684,0,0,0,0,0,0,20,0,0,0,10,0,40,30,0,0,1000,243.1600436,False,59.62959595,BCC_B2,0.755640126,1281.849929,Ti40 V30 Mn20 Si10 
686,25,0,0,0,0,0,0,0,15,25,0,0,0,0,0,35,1000,943.6197779,False,1.402106382,C14_LAVES,0.648836579,663.5745439,Zr35 Al25 Ni25 Nb15 
687,0,15,40,0,0,0,0,0,0,0,20,0,0,10,0,15,1000,276.1707654,False,17.52552268,CR3SI_A15,0.451542728,1392.088331,Cr40 Si20 Co15 Zr15 V10 
689,0,0,35,0,0,30,25,0,0,0,0,0,10,0,0,0,1000,492.5043688,False,7.673669033,C14_LAVES,0.917425216,1358.353658,Cr35 Hf30 Mn25 Ti10 
690,0,0,0,15,0,0,15,0,0,0,0,30,0,0,0,40,1000,938.8052417,False,20.3813336,MOSI2_C11B,0.449995305,879.9901031,Zr40 Ta30 Cu15 Mn15 
691,0,0,10,0,0,40,0,0,0,20,0,0,0,10,0,20,1000,648.6220549,False,11.95679988,C16_THETA,0.628919258,812.6054097,Hf40 Ni20 Zr20 Cr10 V10 
692,0,10,10,0,0,45,0,0,0,0,0,0,35,0,0,0,1000,81.24810672,False,19.35900129,BCC_B2#2,0.641625102,1184.152099,Hf45 Ti35 Co10 Cr10 
693,0,35,15,0,0,0,10,0,0,30,0,0,0,0,0,10,1000,60.56312259,False,3.672568594,FCC_L12,0.552256753,1159.166427,Co35 Ni30 Cr15 Mn10 Zr10 
695,0,0,10,0,0,0,0,0,15,0,20,30,0,25,0,0,1000,314.3683591,False,41.4080117,CR3SI_A15,0.40681194,1531.133149,Ta30 V25 Si20 Nb15 Cr10 
697,25,0,0,20,20,0,0,0,0,0,0,0,20,0,0,15,1000,432.2621477,False,5.405546572,BCC_B2#2,0.428124927,713.2008396,Al25 Cu20 Fe20 Ti20 Zr15 
698,0,15,0,0,30,30,0,0,0,0,10,0,0,15,0,0,1000,131.2269782,False,31.17259218,C15_LAVES,0.587689385,1293.44028,Fe30 Hf30 Co15 V15 Si10 
699,25,0,25,0,0,0,0,0,0,40,0,0,0,0,0,10,1000,363.6601889,False,0.244933465,BCC_B2#2,0.403775757,1156.313091,Ni40 Al25 Cr25 Zr10 
700,25,0,0,0,0,40,0,0,0,0,10,0,5,20,0,0,1000,818.4155013,False,5.287158216,C16_THETA,0.368275278,1076.921785,Hf40 Al25 V20 Si10 Ti5 
701,0,0,0,10,0,0,0,0,25,0,10,45,10,0,0,0,1000,1224.211857,False,29.19350263,BCC_B2,0.631533431,1034.95696,Ta45 Nb25 Cu10 Si10 Ti10 
703,0,0,0,15,25,0,0,0,0,0,0,25,35,0,0,0,1000,298.3339349,False,19.64105782,MU_PHASE,0.227805035,1153.082231,Ti35 Fe25 Ta25 Cu15 
706,30,0,0,10,0,0,0,0,20,0,0,40,0,0,0,0,1000,999.7365272,False,5.294409731,SIGMA,0.880827592,1042.477851,Ta40 Al30 Nb20 Cu10 
707,15,0,40,0,0,0,5,0,30,0,0,0,10,0,0,0,1000,346.2993029,False,7.981661169,C14_LAVES,0.885013664,1611.857268,Cr40 Nb30 Al15 Ti10 Mn5 
708,10,30,10,0,0,30,20,0,0,0,0,0,0,0,0,0,1000,250.4491359,False,5.319749006,C14_LAVES,0.672514355,1403.504188,Co30 Hf30 Mn20 Al10 Cr10 
709,0,15,0,30,0,30,15,0,0,0,0,0,0,0,0,10,1000,725.9963968,False,19.4775438,NITI2,0.360141466,768.0604211,Cu30 Hf30 Co15 Mn15 Zr10 
711,0,0,0,20,0,0,30,0,0,0,5,0,25,0,0,20,1000,807.1384041,False,40.92678044,C14_LAVES,0.466858755,750.4930483,Mn30 Ti25 Cu20 Zr20 Si5 
712,0,10,20,0,0,40,0,0,0,30,0,0,0,0,0,0,1000,140.1533033,False,2.083504099,BCC_B2#2,0.808931452,1402.702961,Hf40 Ni30 Cr20 Co10 
715,0,0,0,0,0,20,20,0,0,0,0,0,15,0,0,45,1000,169.4633146,False,28.07972288,BCC_B2,0.797218674,1267.006157,Zr45 Hf20 Mn20 Ti15 
720,0,0,0,0,0,10,0,0,0,25,0,40,25,0,0,0,1000,712.158976,False,8.599345914,C16_THETA,0.740092781,955.1167095,Ta40 Ni25 Ti25 Hf10 
721,0,45,0,20,15,0,10,0,0,0,0,10,0,0,0,0,1000,280.9194707,False,27.50485567,FCC_L12#2,0.551772298,1008.15515,Co45 Cu20 Fe15 Mn10 Ta10 
722,20,10,0,0,35,0,0,0,35,0,0,0,0,0,0,0,1000,37.65697256,False,4.59723889,C14_LAVES,1.0,1734.485991,Fe35 Nb35 Al20 Co10 
725,0,0,0,35,0,15,0,0,0,0,0,0,25,0,0,25,1000,163.7660984,False,26.75770435,MOSI2_C11B,0.9,823.8972671,Cu35 Ti25 Zr25 Hf15 
726,15,0,0,0,0,20,0,0,25,0,15,0,0,0,0,25,1000,342.2713025,False,17.5676367,BCC_B2,0.549816541,1603.12594,Nb25 Zr25 Hf20 Al15 Si15 
728,15,0,0,0,0,35,35,0,0,0,0,0,0,15,0,0,1000,254.1818589,False,9.553402078,BCC_B2,0.507903714,1252.657864,Hf35 Mn35 Al15 V15 
730,25,15,0,0,0,0,0,0,0,0,20,0,40,0,0,0,1000,718.8456469,False,2.442856739,M5SI3_D88,0.533033573,1116.678504,Ti40 Al25 Si20 Co15 
731,0,30,35,10,0,0,0,0,20,0,0,0,0,0,0,5,1000,543.4624732,False,13.03003045,C14_LAVES,0.509745448,1054.283038,Cr35 Co30 Nb20 Cu10 Zr5 
732,20,0,0,0,0,0,0,0,0,15,0,35,0,30,0,0,1000,185.0421206,False,1.580421759,BCC_B2,0.574835215,1621.872255,Ta35 V30 Al20 Ni15 
733,0,35,0,30,0,0,0,0,0,15,0,0,0,0,0,20,1000,264.1590224,False,8.633992783,C15_LAVES,0.496869552,1076.813862,Co35 Cu30 Zr20 Ni15 
735,0,25,30,0,0,0,5,0,0,0,0,20,0,20,0,0,1000,227.7463227,False,19.11934294,C15_LAVES,0.572355356,1257.229435,Cr30 Co25 Ta20 V20 Mn5 
737,40,0,0,10,0,0,0,0,0,15,35,0,0,0,0,0,1000,341.0234185,False,0.162726362,AL3NI2_D513,0.651139875,652.1750501,Al40 Si35 Ni15 Cu10 
738,0,5,35,0,20,0,0,0,30,10,0,0,0,0,0,0,1000,169.0691491,False,5.407487544,C14_LAVES,1.0,1551.965947,Cr35 Nb30 Fe20 Ni10 Co5 
739,25,0,0,0,0,25,0,0,15,0,20,0,0,0,0,15,1000,582.9362854,False,7.820342873,C16_THETA,0.598671449,1498.726584,Al25 Hf25 Si20 Nb15 Zr15 
743,0,10,0,20,0,0,10,0,0,45,0,15,0,0,0,0,1000,317.288401,False,6.238093294,NI3TA_D0A,0.489154825,1059.680905,Ni45 Cu20 Ta15 Co10 Mn10 
744,0,0,0,20,0,0,0,0,45,15,0,20,0,0,0,0,1000,685.0410545,False,13.26390551,BCC_B2,0.471276923,1092.684502,Nb45 Cu20 Ta20 Ni15 
745,0,40,0,0,0,0,0,0,10,0,0,30,20,0,0,0,1000,275.5736708,False,18.21722481,C16_THETA,0.486684835,1127.873553,Co40 Ta30 Ti20 Nb10 
746,15,0,30,0,10,0,25,0,0,0,0,0,0,0,0,20,1000,356.3028643,False,5.771227145,C14_LAVES,0.583747843,1272.26657,Cr30 Mn25 Zr20 Al15 Fe10 
747,0,5,15,30,0,0,0,0,0,0,35,0,15,0,0,0,1000,739.7776382,False,9.101635161,M6SI5,0.385277872,870.4649798,Si35 Cu30 Cr15 Ti15 Co5 
752,0,30,10,15,0,45,0,0,0,0,0,0,0,0,0,0,1000,460.2750161,False,27.3107394,BCC_B2#2,0.428631006,1045.770729,Hf45 Co30 Cu15 Cr10 
755,10,0,0,0,0,0,0,0,40,10,0,0,5,35,0,0,1000,637.5160395,False,23.3407986,BCC_B2,0.904407383,1116.138656,Nb40 V35 Al10 Ni10 Ti5 
756,0,0,0,20,35,10,0,0,35,0,0,0,0,0,0,0,1000,613.7301737,False,25.13061034,MU_PHASE,0.67533152,956.9678183,Fe35 Nb35 Cu20 Hf10 
757,0,0,0,0,0,45,0,0,0,0,30,15,0,10,0,0,1000,684.7183083,False,25.50481359,M3SI2_D5A,0.746909353,1625.60063,Hf45 Si30 Ta15 V10 
758,0,20,10,0,0,0,0,0,10,0,0,0,15,0,0,45,1000,425.5709886,False,28.21538023,BCC_B2,0.360826152,766.3581168,Zr45 Co20 Ti15 Cr10 Nb10 
759,0,0,0,0,10,45,15,0,0,0,0,0,30,0,0,0,1000,81.77688539,False,25.25372062,BCC_B2,0.735728078,1192.836987,Hf45 Ti30 Mn15 Fe10 
760,0,0,25,20,0,0,10,0,0,0,0,0,10,35,0,0,1000,771.3400856,False,24.05225361,BCC_B2,0.716751894,785.834855,V35 Cr25 Cu20 Mn10 Ti10 
761,0,25,0,0,0,30,35,0,0,0,0,0,0,10,0,0,1000,140.9956514,False,36.43307596,BCC_B2#2,0.38535529,1315.629683,Mn35 Hf30 Co25 V10 
764,0,0,20,0,20,0,5,0,0,0,10,0,0,45,0,0,1000,93.57906397,False,25.19579968,BCC_B2,0.957274527,1490.84417,V45 Cr20 Fe20 Si10 Mn5 