,Al,Co,Cr,Cu,Fe,Hf,Mn,Mo,Nb,Ni,Si,Ta,Ti,V,W,Zr,T (C),freeze_range,literature,mass_change,max_phase,max_phase_fraction,solidus,composition
2549,0,10,25,0,0,0,40,0,25,0,0,0,0,0,0,0,1000,321.9075675,False,19.7055449,C14_LAVES,0.734200224,1212.996885,Mn40 Cr25 Nb25 Co10 
2550,10,40,35,0,0,0,0,0,15,0,0,0,0,0,0,0,1000,311.498362,False,10.1045088,BCC_B2#2,0.541090152,1322.340107,Co40 Cr35 Nb15 Al10 
2551,15,0,0,0,35,0,40,0,10,0,0,0,0,0,0,0,1000,284.8963047,False,3.706120587,BCC_B2#2,0.825636918,1400.881982,Mn40 Fe35 Al15 Nb10 
2552,0,0,10,0,30,5,0,0,10,0,0,0,0,45,0,0,1000,108.0942488,False,32.69136209,BCC_B2,0.836731808,1358.945148,V45 Fe30 Cr10 Nb10 Hf5 
2553,0,30,0,0,0,0,0,0,0,0,35,15,0,10,0,10,1000,789.7652853,False,26.65860491,C14_LAVES,0.467381783,877.6713101,Si35 Co30 Ta15 V10 Zr10 
2556,0,10,0,0,10,0,40,0,0,0,0,40,0,0,0,0,1000,132.4049826,False,23.76820614,C14_LAVES,0.735885874,1319.652137,Mn40 Ta40 Co10 Fe10 
2557,0,0,0,15,35,30,0,0,0,0,0,0,20,0,0,0,1000,567.2655969,False,18.61624193,C14_LAVES,0.446203042,901.7932476,Fe35 Hf30 Ti20 Cu15 
2559,20,0,0,25,0,0,0,0,20,25,0,0,0,0,0,10,1000,641.9966896,False,2.276136058,HEUSLER_L21,0.484091309,945.7269916,Cu25 Ni25 Al20 Nb20 Zr10 
2560,0,20,45,0,0,0,0,0,0,25,0,0,0,0,0,10,1000,181.9843596,False,2.456412049,BCC_B2,0.578874448,1270.448961,Cr45 Ni25 Co20 Zr10 
2561,0,0,0,30,10,5,0,0,0,0,0,10,45,0,0,0,1000,675.8701128,False,21.06335869,T3_CU4TI3,0.469259119,903.476479,Ti45 Cu30 Fe10 Ta10 Hf5 
2564,0,0,0,30,0,25,0,0,0,10,0,35,0,0,0,0,1000,1159.850333,False,10.65795569,C16_THETA,0.290013464,951.7623616,Ta35 Cu30 Hf25 Ni10 
2565,0,0,35,0,0,20,0,0,0,0,25,0,0,15,0,5,1000,446.2461499,False,12.93949618,BCC_B2,0.428937591,1592.477859,Cr35 Si25 Hf20 V15 Zr5 
2566,0,0,0,0,0,0,10,0,0,20,15,45,0,10,0,0,1000,526.5877129,False,14.63794632,C16_THETA,0.666631659,965.0973361,Ta45 Ni20 Si15 Mn10 V10 
2567,10,35,0,0,0,0,0,0,0,0,0,15,0,40,0,0,1000,128.0965939,False,15.68561934,BCC_B2#2,0.587756432,1238.708985,V40 Co35 Ta15 Al10 
2570,0,40,0,0,0,10,0,0,0,0,20,0,0,0,0,30,1000,323.3389507,False,22.18761916,C14_LAVES,0.724743695,1319.495505,Co40 Zr30 Si20 Hf10 
2571,0,0,40,0,0,25,10,0,0,0,0,0,10,0,0,15,1000,423.7419498,False,10.66767376,C14_LAVES,0.732691359,1301.686994,Cr40 Hf25 Zr15 Mn10 Ti10 
2572,30,10,35,0,0,15,0,0,0,0,0,0,10,0,0,0,1000,90.59314971,False,2.5150878,BCC_B2,0.520618537,1424.801216,Cr35 Al30 Hf15 Co10 Ti10 
2574,0,0,0,0,30,40,5,0,0,0,10,0,15,0,0,0,1000,589.9715944,False,17.42542539,C14_LAVES,0.400030438,955.0567677,Hf40 Fe30 Ti15 Si10 Mn5 
2576,0,0,0,0,0,0,20,0,0,30,0,0,35,0,0,15,1000,537.9774036,False,11.71411211,BCC_B2#2,0.528937905,926.819204,Ti35 Ni30 Mn20 Zr15 
2578,0,20,0,0,0,0,30,0,35,0,0,0,0,15,0,0,1000,91.81916269,False,82.58900839,C14_LAVES,0.645701412,1080.347624,Nb35 Mn30 Co20 V15 
2579,0,10,45,0,25,5,0,0,0,0,0,0,0,0,0,15,1000,96.52165584,False,7.992396715,C15_LAVES,0.619473461,1450.340355,Cr45 Fe25 Zr15 Co10 Hf5 
2580,0,0,0,0,0,0,25,0,35,15,0,25,0,0,0,0,1000,541.2465743,False,13.8538741,C14_LAVES,0.61927812,1118.978148,Nb35 Mn25 Ta25 Ni15 
2581,0,20,0,30,0,0,0,0,0,20,0,10,0,20,0,0,1000,81.30623742,False,15.70200374,FCC_L12,0.318825133,1095.280194,Cu30 Co20 Ni20 V20 Ta10 
2586,5,0,0,10,0,0,0,0,0,25,0,25,0,0,0,35,1000,761.5044621,False,3.949658254,BCC_B2#2,0.482103214,876.4102611,Zr35 Ni25 Ta25 Cu10 Al5 
2587,0,15,20,0,20,0,45,0,0,0,0,0,0,0,0,0,1000,73.65915493,False,10.43394933,BCC_B2,0.64009646,1243.359359,Mn45 Cr20 Fe20 Co15 
2588,0,0,0,0,0,10,0,0,0,30,45,0,0,0,0,15,1000,857.6501525,False,7.05147269,MSI_B27,0.285488595,873.3591371,Si45 Ni30 Zr15 Hf10 
2590,35,0,0,0,25,0,0,0,0,15,0,25,0,0,0,0,1000,595.7947252,False,0.386398268,C14_LAVES,0.739737031,1312.281706,Al35 Fe25 Ta25 Ni15 
2591,0,25,0,0,0,15,0,0,25,35,0,0,0,0,0,0,1000,186.6479948,False,10.25440419,C15_LAVES,0.640558227,1203.844305,Ni35 Co25 Nb25 Hf15 
2593,0,15,0,0,20,30,0,0,0,0,0,0,25,10,0,0,1000,360.3087852,False,28.13974615,NITI2,0.462268771,1004.600281,Hf30 Ti25 Fe20 Co15 V10 
2595,25,0,0,15,0,20,0,0,0,0,10,0,0,0,0,30,1000,1274.441299,False,2.052814486,ALZR,0.49638492,765.4000187,Zr30 Al25 Hf20 Cu15 Si10 
2597,40,0,0,0,0,0,10,0,0,0,0,35,0,0,0,15,1000,524.2276944,False,2.542589545,SIGMA,0.508583099,1281.196697,Al40 Ta35 Zr15 Mn10 
2598,0,20,0,0,15,0,0,0,15,5,0,45,0,0,0,0,1000,247.6290489,False,13.83118704,MU_PHASE#2,0.605267545,1632.624536,Ta45 Co20 Fe15 Nb15 Ni5 
2599,20,0,0,0,0,0,0,0,0,10,20,0,40,0,0,10,1000,933.8373129,False,1.46419808,M5SI3_D88,0.554231679,1085.704717,Ti40 Al20 Si20 Ni10 Zr10 
2601,10,0,0,0,0,0,30,0,0,30,0,0,30,0,0,0,1000,164.7592706,False,5.145004361,HEUSLER_L21,0.37348664,800.4839872,Mn30 Ni30 Ti30 Al10 
2602,45,10,0,15,20,0,0,0,0,10,0,0,0,0,0,0,1000,209.8948001,False,0.180215253,BCC_B2#2,1.0,1232.81062,Al45 Fe20 Cu15 Co10 Ni10 
2603,0,25,0,0,0,0,20,0,45,0,10,0,0,0,0,0,1000,269.1655957,False,50.4418966,C14_LAVES,0.73415122,1177.260722,Nb45 Co25 Mn20 Si10 
2604,15,30,0,0,0,5,0,0,0,0,0,0,10,0,0,40,1000,352.1449366,False,5.861855198,BCC_B2#2,0.551855286,961.7442456,Zr40 Co30 Al15 Ti10 Hf5 
2605,0,0,0,0,40,0,25,0,0,0,0,0,25,0,0,10,1000,26.8522903,False,34.69327433,C14_LAVES,1.0,1410.611759,Fe40 Mn25 Ti25 Zr10 
2607,0,0,0,0,0,25,0,0,40,0,10,0,0,0,0,25,1000,144.8994548,False,36.82655162,BCC_B2,0.700062817,1611.981421,Nb40 Hf25 Zr25 Si10 
2608,0,35,0,0,0,30,20,0,5,10,0,0,0,0,0,0,1000,462.4035223,False,9.924079878,BCC_B2#2,0.779970971,1006.093805,Co35 Hf30 Mn20 Ni10 Nb5 
2610,0,30,0,0,0,0,0,0,0,20,30,0,0,0,0,20,1000,163.2110458,False,7.339075801,G_PHASE,0.773333098,1122.335027,Co30 Si30 Ni20 Zr20 
2611,15,25,0,0,0,0,0,0,0,20,40,0,0,0,0,0,1000,362.896614,False,1.260947398,BCC_B2#2,0.563628125,1075.124829,Si40 Co25 Ni20 Al15 
2612,0,0,0,0,0,30,40,0,10,0,0,10,0,0,0,10,1000,160.9155389,False,16.15770533,C14_LAVES,1.0,1382.254076,Mn40 Hf30 Nb10 Ta10 Zr10 
2613,0,0,0,25,15,0,0,0,20,0,0,0,0,40,0,0,1000,391.9146251,False,77.29006405,BCC_B2,0.76284158,1089.538304,V40 Cu25 Nb20 Fe15 
2616,0,0,0,40,25,0,0,0,15,0,0,0,0,20,0,0,1000,207.7934105,False,60.85483414,BCC_B2,0.395347276,1089.430454,Cu40 Fe25 V20 Nb15 
2617,0,0,0,0,0,0,0,0,20,35,0,10,30,5,0,0,1000,366.5940153,False,19.01903752,BCC_B2#2,0.979398595,885.0581486,Ni35 Ti30 Nb20 Ta10 V5 
2618,0,10,0,0,0,25,15,0,0,40,0,0,0,0,0,10,1000,571.8769737,False,6.72656309,BCC_B2#2,0.568916336,782.8364052,Ni40 Hf25 Mn15 Co10 Zr10 
2619,0,0,0,0,0,0,0,0,15,20,40,25,0,0,0,0,1000,1386.768958,False,9.828983784,C14_LAVES,0.414481937,628.4529976,Si40 Ta25 Ni20 Nb15 
2623,0,0,0,0,5,0,0,0,0,20,45,0,0,20,0,10,1000,839.3123732,False,14.91851883,W5SI3_D8M,0.288085263,905.0271874,Si45 Ni20 V20 Zr10 Fe5 
2624,0,10,15,0,0,30,0,0,0,0,0,5,0,40,0,0,1000,341.4212127,False,20.62946168,C15_LAVES,0.431318214,1287.044851,V40 Hf30 Cr15 Co10 Ta5 
2625,10,0,0,0,10,10,25,0,0,0,0,0,0,45,0,0,1000,168.5456539,False,19.8692203,BCC_B2,0.854195316,1389.880108,V45 Mn25 Al10 Fe10 Hf10 
2627,10,0,0,0,0,0,15,0,10,0,25,0,0,40,0,0,1000,357.3629155,False,23.7844185,BCC_B2,0.444051313,1304.993315,V40 Si25 Mn15 Al10 Nb10 
2628,0,0,0,20,0,0,20,0,0,35,0,0,25,0,0,0,1000,236.2324516,False,9.953342004,FCC_L12,0.368229288,842.9194209,Ni35 Ti25 Cu20 Mn20 
2635,0,0,15,0,0,10,0,0,0,10,0,25,40,0,0,0,1000,564.5904873,False,6.021666409,BCC_B2#2,0.553891151,890.1467612,Ti40 Ta25 Cr15 Hf10 Ni10 
2636,15,0,0,40,0,0,0,0,0,10,25,0,0,0,0,10,1000,697.9603692,False,1.011508953,MSI_B27,0.167396625,870.5953968,Cu40 Si25 Al15 Ni10 Zr10 
2637,0,0,30,10,0,0,0,0,0,0,35,25,0,0,0,0,1000,680.9921162,False,5.276403427,C14_LAVES,0.749813707,1003.945043,Si35 Cr30 Ta25 Cu10 
2640,0,0,0,35,0,0,0,0,0,0,0,20,0,10,0,35,1000,1108.735391,False,29.23707764,BCC_B2#2,0.690771752,888.0997038,Cu35 Zr35 Ta20 V10 
2641,0,5,0,0,0,20,0,0,0,0,25,0,30,20,0,0,1000,575.8394543,False,30.74552141,CR3SI_A15,0.486473756,1215.326406,Ti30 Si25 Hf20 V20 Co5 
2643,0,25,0,10,0,45,0,0,0,0,0,0,20,0,0,0,1000,479.7113723,False,18.93903218,NITI2,0.749985024,873.2533816,Hf45 Co25 Ti20 Cu10 
2644,0,35,0,20,0,0,0,0,20,25,0,0,0,0,0,0,1000,287.4616449,False,11.69121292,C15_LAVES,0.718532082,1170.71685,Co35 Ni25 Cu20 Nb20 
2646,0,0,10,15,0,0,0,0,0,0,0,30,45,0,0,0,1000,792.1865987,False,20.14703826,BCC_B2,0.59028438,957.4188491,Ti45 Ta30 Cu15 Cr10 
2648,0,0,0,0,0,0,0,0,40,20,15,0,0,0,0,25,1000,770.1767461,False,14.87993768,TA5SI3_D8L,0.302768563,1058.056211,Nb40 Zr25 Ni20 Si15 
2649,0,0,0,35,0,0,0,0,25,0,10,0,0,0,0,30,1000,936.4156537,False,48.44510212,CU8ZR3,0.480761575,893.1051787,Cu35 Zr30 Nb25 Si10 
2650,0,0,10,0,0,10,15,0,0,30,0,0,0,0,0,35,1000,567.7828809,False,8.526172316,NIZR,0.522435766,801.3700261,Zr35 Ni30 Mn15 Cr10 Hf10 
2653,0,20,5,0,30,15,0,0,0,30,0,0,0,0,0,0,1000,89.41147347,False,5.710510414,FCC_L12,0.478672436,1156.945052,Fe30 Ni30 Co20 Hf15 Cr5 
2654,0,0,0,25,0,25,0,0,25,10,0,15,0,0,0,0,1000,998.6349791,False,14.70457775,BCC_B2,0.398962226,948.7779605,Cu25 Hf25 Nb25 Ta15 Ni10 
2657,0,20,40,0,0,0,0,0,0,0,0,15,0,0,0,25,1000,345.6217875,False,10.26345185,C15_LAVES,0.846615186,1330.870403,Cr40 Zr25 Co20 Ta15 
2658,0,0,0,0,0,0,0,0,30,0,40,0,0,20,0,10,1000,208.8881228,False,76.47667575,W5SI3_D8M#2,0.388362066,1792.751022,Si40 Nb30 V20 Zr10 
2659,0,0,20,15,0,0,0,0,30,0,0,15,0,20,0,0,1000,558.5990355,False,35.35127341,BCC_B2#2,0.771471974,1214.358325,Nb30 Cr20 V20 Cu15 Ta15 
2660,0,0,0,0,0,40,5,0,0,0,25,10,20,0,0,0,1000,893.1527305,False,20.19925069,C16_THETA,0.424653277,1144.926503,Hf40 Si25 Ti20 Ta10 Mn5 
2663,0,0,20,0,20,25,0,0,0,0,15,20,0,0,0,0,1000,274.1756469,False,8.878654011,C14_LAVES#2,0.689929206,1630.015575,Hf25 Cr20 Fe20 Ta20 Si15 
2664,0,0,0,20,30,0,5,0,0,0,20,0,25,0,0,0,1000,728.1069848,False,34.91040149,C14_LAVES,0.569622079,894.9436302,Fe30 Ti25 Cu20 Si20 Mn5 
2667,0,0,0,0,0,0,0,0,45,0,0,25,0,20,0,10,1000,401.6193612,False,55.77348336,BCC_B2,1.0,1902.939901,Nb45 Ta25 V20 Zr10 
2668,0,25,0,0,0,0,0,0,0,15,0,35,0,0,0,25,1000,455.4636874,False,7.989472941,C16_THETA,0.600730704,1088.494406,Ta35 Co25 Zr25 Ni15 
2669,20,0,30,0,0,10,0,0,0,0,0,0,0,40,0,0,1000,216.7453047,False,3.110688969,BCC_B2,1.0,1512.035814,V40 Cr30 Al20 Hf10 
2671,0,10,0,40,0,0,20,0,5,0,0,0,0,25,0,0,1000,413.3266017,False,47.91039973,BCC_B2,0.468294792,939.9199694,Cu40 V25 Mn20 Co10 Nb5 
2672,0,0,0,0,20,0,15,0,20,0,0,0,45,0,0,0,1000,115.8156824,False,47.00810097,BCC_B2#3,0.530216498,1156.094193,Ti45 Fe20 Nb20 Mn15 
2673,0,10,0,0,35,0,0,0,0,40,0,5,10,0,0,0,1000,208.0275478,False,4.761938023,FCC_L12#2,0.815770633,1035.24014,Ni40 Fe35 Co10 Ti10 Ta5 
2674,15,0,0,0,0,25,0,0,0,10,0,0,0,15,0,35,1000,517.1233115,False,4.763319961,C16_THETA,0.559997068,768.9509583,Zr35 Hf25 Al15 V15 Ni10 
2675,25,0,35,0,10,0,0,0,0,0,0,30,0,0,0,0,1000,307.6029051,False,0.923261423,C14_LAVES,0.742608181,1310.534731,Cr35 Ta30 Al25 Fe10 
2676,0,20,0,0,0,45,0,0,0,0,0,25,0,10,0,0,1000,1181.509494,False,26.3367568,NITI2,0.599485291,1181.01898,Hf45 Ta25 Co20 V10 
2677,0,10,0,5,45,0,0,0,0,10,0,0,0,30,0,0,1000,222.3179576,False,27.07777327,BCC_B2#2,0.985339018,1107.898648,Fe45 V30 Co10 Ni10 Cu5 
2679,0,0,0,0,0,0,40,0,0,15,0,20,0,0,0,25,1000,305.4911008,False,8.215216725,C14_LAVES,0.634443082,990.8104204,Mn40 Zr25 Ta20 Ni15 
2681,0,10,30,0,0,0,45,0,0,0,15,0,0,0,0,0,1000,466.4147727,False,9.422147906,FCC_L12,0.666154002,814.8662968,Mn45 Cr30 Si15 Co10 
2682,0,10,0,0,0,0,10,0,0,25,0,0,0,25,0,30,1000,426.5818416,False,17.37938021,BCC_B2,0.38543806,1039.213113,Zr30 Ni25 V25 Co10 Mn10 
2683,0,5,0,0,30,0,25,0,0,0,0,0,20,20,0,0,1000,71.87347595,False,46.04331475,BCC_B2,0.523424188,1151.14423,Fe30 Mn25 Ti20 V20 Co5 
2688,5,30,0,0,0,10,15,0,0,40,0,0,0,0,0,0,1000,62.56129486,False,5.910419289,NI7ZR2,0.442391542,1095.205075,Ni40 Co30 Mn15 Hf10 Al5 
2689,0,0,0,25,0,0,0,0,15,15,0,0,10,35,0,0,1000,353.9280638,False,22.24583433,BCC_B2,0.464474305,1063.202691,V35 Cu25 Nb15 Ni15 Ti10 
2690,0,15,0,10,0,0,35,0,15,25,0,0,0,0,0,0,1000,125.6003079,False,10.22948901,FCC_L12,0.645935183,1033.609227,Mn35 Ni25 Co15 Nb15 Cu10 
2691,0,0,0,35,0,0,0,0,0,0,0,0,45,10,0,10,1000,414.7741463,False,46.29836706,MOSI2_C11B,0.433565602,850.773971,Ti45 Cu35 V10 Zr10 
2694,0,15,0,25,0,0,0,0,0,10,25,0,0,0,0,25,1000,600.6365264,False,10.42750908,G_PHASE,0.451880572,1015.871416,Cu25 Si25 Zr25 Co15 Ni10 
2695,0,0,0,10,0,0,30,0,25,0,35,0,0,0,0,0,1000,967.9877989,False,49.71035908,M5SI3_D88,0.478958618,820.9708542,Si35 Mn30 Nb25 Cu10 
2696,10,0,10,0,35,0,0,0,0,30,0,0,15,0,0,0,1000,80.40308781,False,1.163596876,FCC_L12,0.450295465,1101.571673,Fe35 Ni30 Ti15 Al10 Cr10 
2700,40,0,0,0,0,0,10,0,0,0,0,10,0,20,0,20,1000,183.2624306,False,7.392444729,BCC_B2,0.449917454,1204.810042,Al40 V20 Zr20 Mn10 Ta10 
2703,5,40,0,0,0,0,25,0,0,0,0,0,20,0,0,10,1000,233.0366536,False,17.05262592,BCC_B2,0.483080403,974.8807142,Co40 Mn25 Ti20 Zr10 Al5 
2704,0,0,0,0,0,20,15,0,5,25,0,0,35,0,0,0,1000,273.70014,False,8.622400599,FCC_L12#2,0.65086257,794.0401851,Ti35 Ni25 Hf20 Mn15 Nb5 
2706,0,10,0,0,0,0,30,0,5,0,30,0,0,25,0,0,1000,882.8745182,False,47.00223114,W5SI3_D8M,0.398465574,677.5426329,Mn30 Si30 V25 Co10 Nb5 
2710,0,0,0,0,25,0,10,0,35,0,0,10,0,0,0,20,1000,84.02984031,False,42.49752769,C14_LAVES,0.952300076,1413.5791,Nb35 Fe25 Zr20 Mn10 Ta10 
2711,0,0,25,15,0,20,0,0,0,0,0,10,0,30,0,0,1000,648.1220676,False,17.26614036,C15_LAVES,0.570641985,967.6879322,V30 Cr25 Hf20 Cu15 Ta10 
2712,0,35,0,0,0,10,0,0,30,0,5,0,0,20,0,0,1000,372.3307581,False,53.05413382,BCC_B2#2,0.188874938,1083.370101,Co35 Nb30 V20 Hf10 Si5 
2714,0,0,0,40,10,0,0,0,0,0,0,40,0,10,0,0,1000,785.4232325,False,31.40517808,BCC_B2,0.376813512,1085.408717,Cu40 Ta40 Fe10 V10 
2715,0,0,0,40,0,15,0,0,20,0,25,0,0,0,0,0,1000,1006.859973,False,28.87365269,FCC_L12,0.409115975,969.1363179,Cu40 Si25 Nb20 Hf15 
2716,0,15,0,0,0,0,0,0,30,25,0,25,0,5,0,0,1000,269.6129239,False,17.39891105,MU_PHASE,0.750816035,1441.667523,Nb30 Ni25 Ta25 Co15 V5 
2717,0,0,0,0,20,45,0,0,0,20,15,0,0,0,0,0,1000,685.3302871,False,8.811551241,C15_LAVES,0.394977622,971.6424552,Hf45 Fe20 Ni20 Si15 
2718,0,0,0,0,0,30,0,0,0,10,0,15,0,40,0,5,1000,798.7403075,False,11.24551443,C15_LAVES,0.704607608,933.0323045,V40 Hf30 Ta15 Ni10 Zr5 
2719,0,35,0,15,0,0,0,0,20,0,25,0,0,0,0,5,1000,680.7082018,False,28.98515904,TA5SI3_D8L,0.260215101,897.2098263,Co35 Si25 Nb20 Cu15 Zr5 
2722,0,0,10,0,0,35,0,0,0,5,25,0,0,25,0,0,1000,967.0423019,False,18.57625484,M3SI2_D5A,0.374167599,1093.251347,Hf35 Si25 V25 Cr10 Ni5 
2723,0,0,0,0,0,0,0,0,0,15,45,15,0,25,0,0,1000,1090.022528,False,16.31216472,W5SI3_D8M,0.378492304,644.0714815,Si45 V25 Ni15 Ta15 
2725,0,0,0,0,20,0,25,0,20,0,0,0,0,0,0,35,1000,134.5789333,False,48.04671021,C14_LAVES,1.0,1271.158499,Zr35 Mn25 Fe20 Nb20 
2727,0,0,0,0,35,0,10,0,30,0,0,0,0,5,0,20,1000,159.0908637,False,71.46435144,C14_LAVES,0.802779381,1221.955484,Fe35 Nb30 Zr20 Mn10 V5 
2729,0,0,0,10,40,0,35,0,0,0,0,0,0,15,0,0,1000,398.0054049,False,67.78978284,BCC_B2,0.885103943,895.8903276,Fe40 Mn35 V15 Cu10 
2730,0,0,0,0,20,0,0,0,0,25,0,0,5,40,0,10,1000,383.853528,False,13.46102032,BCC_B2,0.584755873,1080.619049,V40 Ni25 Fe20 Zr10 Ti5 
2732,0,0,0,0,40,0,20,0,15,0,0,0,20,0,0,5,1000,75.36820056,False,32.65356395,C14_LAVES,1.0,1414.928384,Fe40 Mn20 Ti20 Nb15 Zr5 
2738,0,0,0,10,0,0,0,0,0,25,0,0,15,45,0,5,1000,471.8623224,False,12.2956152,BCC_B2,0.531421723,1068.691306,V45 Ni25 Ti15 Cu10 Zr5 
2739,10,0,0,0,0,20,0,0,5,0,0,0,40,0,0,25,1000,160.950145,False,14.87062679,BCC_B2#2,1.0,1379.820648,Ti40 Zr25 Hf20 Al10 Nb5 
2742,10,0,0,20,0,0,20,0,20,0,0,30,0,0,0,0,1000,786.8722528,False,17.20010119,SIGMA,0.358918138,954.4952387,Ta30 Cu20 Mn20 Nb20 Al10 
2744,0,0,25,25,0,0,0,0,0,10,0,10,0,0,0,30,1000,553.2779101,False,3.94060517,BCC_B2#2,0.463020209,1076.580365,Zr30 Cr25 Cu25 Ni10 Ta10 
2745,0,0,0,30,0,0,0,0,0,0,15,40,15,0,0,0,1000,746.5879095,False,20.88197456,M3SI,0.400755694,1059.789838,Ta40 Cu30 Si15 Ti15 
2746,20,0,0,40,0,0,0,0,30,0,0,0,10,0,0,0,1000,713.3836346,False,6.888584136,BCC_B2#2,0.574587077,959.9591983,Cu40 Nb30 Al20 Ti10 
2748,0,0,0,0,0,0,20,0,0,5,0,20,45,0,0,10,1000,374.2789828,False,13.10238907,BCC_B2,0.536944442,983.3760481,Ti45 Mn20 Ta20 Zr10 Ni5 
2752,0,0,10,0,0,0,0,0,0,0,25,25,40,0,0,0,1000,302.5977453,False,20.0400522,M5SI3_D88,0.641284412,1680.219352,Ti40 Si25 Ta25 Cr10 
2753,0,0,0,0,0,0,30,0,20,10,0,0,0,40,0,0,1000,459.4145083,False,34.92911024,BCC_B2,0.877372934,962.9502327,V40 Mn30 Nb20 Ni10 
2754,0,15,0,0,0,0,40,0,0,30,0,0,0,0,0,15,1000,123.1557851,False,7.286779741,FCC_L12,0.447218723,784.503343,Mn40 Ni30 Co15 Zr15 
2763,10,0,0,0,0,0,0,0,0,40,0,30,0,20,0,0,1000,483.8326587,False,4.139289203,C14_LAVES,0.643431323,1184.609624,Ni40 Ta30 V20 Al10 
2764,5,10,15,0,0,25,0,0,0,0,0,0,45,0,0,0,1000,67.82463788,False,8.597126476,BCC_B2,0.667598074,1190.455175,Ti45 Hf25 Cr15 Co10 Al5 
2765,0,0,0,0,0,0,45,0,0,30,0,0,10,0,0,15,1000,293.980654,False,6.962966791,BCC_B2#2,0.511760339,932.6499921,Mn45 Ni30 Zr15 Ti10 
2766,0,15,10,30,0,0,0,0,25,0,0,0,20,0,0,0,1000,416.8145191,False,32.6680474,CO10CU57TI33,0.373986495,960.289584,Cu30 Nb25 Ti20 Co15 Cr10 
2767,0,0,25,0,0,0,0,0,0,0,0,0,15,45,0,15,1000,284.3858523,False,26.29507424,BCC_B2,0.744463852,1287.264813,V45 Cr25 Ti15 Zr15 
2768,0,5,0,0,25,20,25,0,0,0,0,0,25,0,0,0,1000,518.1704932,False,21.1603387,C14_LAVES,0.674044036,1044.606016,Fe25 Mn25 Ti25 Hf20 Co5 
2769,20,0,0,0,0,0,35,0,0,0,0,35,10,0,0,0,1000,352.9864165,False,3.180119916,C14_LAVES,0.650305509,1266.730691,Mn35 Ta35 Al20 Ti10 
2771,0,0,10,20,20,0,0,0,0,25,0,0,0,25,0,0,1000,143.1478962,False,11.77638629,SIGMA,0.496852655,1126.706129,Ni25 V25 Cu20 Fe20 Cr10 
2772,0,30,0,0,10,0,0,0,0,40,0,0,0,20,0,0,1000,30.21905017,False,19.83407841,FCC_L12,1.0,1376.465976,Ni40 Co30 V20 Fe10 
2773,40,15,20,0,25,0,0,0,0,0,0,0,0,0,0,0,1000,44.78468766,False,0.459908818,BCC_B2#3,1.0,1301.446029,Al40 Fe25 Cr20 Co15 
2774,0,0,25,0,0,0,20,0,20,5,30,0,0,0,0,0,1000,815.3707082,False,7.770557702,M11SI8,0.348855701,1136.305665,Si30 Cr25 Mn20 Nb20 Ni5 
2775,0,0,20,15,0,0,0,0,0,0,0,20,10,0,0,35,1000,720.4999848,False,10.47812447,C15_LAVES,0.315527645,912.5293738,Zr35 Cr20 Ta20 Cu15 Ti10 
2776,0,20,0,0,0,20,0,0,25,0,30,0,0,5,0,0,1000,1172.627223,False,45.18246438,TA5SI3_D8L,0.451402915,1015.742667,Si30 Nb25 Co20 Hf20 V5 
2779,0,0,35,15,0,0,25,0,0,10,0,15,0,0,0,0,1000,575.048445,False,3.001303744,C14_LAVES,0.449677167,906.8304491,Cr35 Mn25 Cu15 Ta15 Ni10 
2780,0,5,0,0,0,25,30,0,10,0,0,30,0,0,0,0,1000,631.1853463,False,19.19219509,C14_LAVES,0.534214451,1248.280599,Mn30 Ta30 Hf25 Nb10 Co5 
2781,0,20,10,0,0,0,20,0,10,0,0,40,0,0,0,0,1000,123.6431446,False,18.73035141,C14_LAVES,0.577204943,1323.841447,Ta40 Co20 Mn20 Cr10 Nb10 
2782,10,0,0,0,0,40,0,0,0,25,0,25,0,0,0,0,1000,788.6365106,False,2.766826698,C16_THETA,0.439993587,913.5087111,Hf40 Ni25 Ta25 Al10 
2785,0,45,15,0,0,20,0,0,0,0,0,0,20,0,0,0,1000,253.6631143,False,10.70208534,BCC_B2#2,0.868357753,1311.01783,Co45 Hf20 Ti20 Cr15 
2786,0,0,45,0,0,0,0,0,10,15,30,0,0,0,0,0,1000,897.5655718,False,1.309108853,CR3SI_A15,0.551218855,1006.663366,Cr45 Si30 Ni15 Nb10 
2788,0,0,30,15,45,0,0,0,0,0,0,0,0,10,0,0,1000,450.8205571,False,15.78199648,SIGMA,0.845983614,1085.555714,Fe45 Cr30 Cu15 V10 
2790,0,5,10,0,0,0,0,0,40,0,15,30,0,0,0,0,1000,531.9966831,False,31.50844566,BCC_B2,0.427954531,1404.843755,Nb40 Ta30 Si15 Cr10 Co5 
2791,0,15,0,0,0,25,10,0,45,0,0,0,0,0,0,5,1000,666.6930873,False,24.83506796,BCC_B2,0.473569258,1324.741838,Nb45 Hf25 Co15 Mn10 Zr5 
2793,0,0,15,0,40,0,0,0,0,5,10,30,0,0,0,0,1000,587.3238583,False,3.540689036,C14_LAVES,0.901494982,1024.012895,Fe40 Ta30 Cr15 Si10 Ni5 
2794,20,0,0,10,0,0,0,0,0,45,20,0,5,0,0,0,1000,675.3929931,False,0.256349219,BCC_B2#2,0.47330366,954.4608969,Ni45 Al20 Si20 Cu10 Ti5 
2795,0,10,0,10,0,0,0,0,0,0,0,25,0,15,0,40,1000,763.0881406,False,30.63139079,BCC_B2,0.286839596,959.2210568,Zr40 Ta25 V15 Co10 Cu10 
2796,40,0,0,0,0,0,20,0,0,20,0,20,0,0,0,0,1000,729.8484839,False,0.516470958,C14_LAVES,0.598116778,1108.561883,Al40 Mn20 Ni20 Ta20 
2798,0,0,0,10,10,0,35,0,0,25,0,0,0,20,0,0,1000,124.8239581,False,19.48947752,FCC_L12,0.817344254,983.5382851,Mn35 Ni25 V20 Cu10 Fe10 
2799,0,0,0,0,0,10,25,0,20,0,0,0,0,35,0,10,1000,203.9032616,False,53.52423451,BCC_B2,0.773410309,1206.594622,V35 Mn25 Nb20 Hf10 Zr10 