,Al,Co,Cr,Cu,Fe,Hf,Mn,Mo,Nb,Ni,Si,Ta,Ti,V,W,Zr,T (C),freeze_range,literature,mass_change,max_phase,max_phase_fraction,solidus,composition
1257,0,35,15,25,5,0,20,0,0,0,0,0,0,0,0,0,1000,224.0662808,False,11.73950925,FCC_L12#2,0.711864058,963.1966336,Co35 Cu25 Mn20 Cr15 Fe5 
1259,10,0,20,0,0,0,0,0,25,0,5,0,40,0,0,0,1000,207.8246142,False,20.31695884,BCC_B2#2,0.725952979,1394.840907,Ti40 Nb25 Cr20 Al10 Si5 
1260,0,20,0,15,0,0,15,0,30,0,0,0,0,0,0,20,1000,415.4046114,False,52.45748701,C14_LAVES,0.433002185,927.8062544,Nb30 Co20 Zr20 Cu15 Mn15 
1261,15,40,0,10,15,0,0,0,0,0,0,0,0,0,0,20,1000,263.8104067,False,4.458742535,C15_LAVES,0.594008083,1020.39956,Co40 Zr20 Al15 Fe15 Cu10 
1262,0,0,15,0,0,0,0,0,0,35,5,0,10,0,0,35,1000,831.4682605,False,3.960030191,BCC_B2#2,0.460394344,1107.939896,Ni35 Zr35 Cr15 Ti10 Si5 
1264,0,10,0,0,40,0,5,0,10,35,0,0,0,0,0,0,1000,64.06770884,False,6.211871613,FCC_L12,0.828380618,1227.913875,Fe40 Ni35 Co10 Nb10 Mn5 
1265,0,0,0,30,0,0,0,0,0,10,0,0,0,20,0,40,1000,417.7603895,False,22.52788504,BCC_B2#2,0.804859565,1106.848195,Zr40 Cu30 V20 Ni10 
1266,0,0,0,30,0,20,0,0,0,0,0,25,0,25,0,0,1000,1129.975773,False,26.76699436,BCC_B2,0.326401312,958.3118962,Cu30 Ta25 V25 Hf20 
1268,0,15,0,40,0,0,0,0,35,0,0,10,0,0,0,0,1000,655.9259516,False,37.65192902,FCC_L12,0.400912218,1091.703327,Cu40 Nb35 Co15 Ta10 
1269,10,0,0,0,0,0,25,0,0,0,30,35,0,0,0,0,1000,664.8606887,False,8.228578337,TA5SI3_D8L,0.39787099,977.7502852,Ta35 Si30 Mn25 Al10 
1270,30,0,0,0,20,0,0,0,0,0,0,0,25,5,0,20,1000,174.0356285,False,7.290068953,C14_LAVES,0.506612269,1029.278418,Al30 Ti25 Fe20 Zr20 V5 
1273,30,0,0,25,0,0,0,0,20,0,0,0,15,0,0,10,1000,881.1415123,False,9.60679984,SIGMA,0.479632783,715.7525052,Al30 Cu25 Nb20 Ti15 Zr10 
1276,35,0,0,0,20,35,0,0,10,0,0,0,0,0,0,0,1000,148.4049927,False,1.078314234,C14_LAVES,0.504649037,1261.171404,Al35 Hf35 Fe20 Nb10 
1277,0,0,30,0,0,25,0,0,35,0,0,0,10,0,0,0,1000,208.1316349,False,14.83218495,BCC_B2#2,0.696126902,1465.003662,Nb35 Cr30 Hf25 Ti10 
1278,0,10,0,0,0,0,0,0,0,40,0,0,0,25,0,25,1000,421.2191244,False,15.54289422,NI10ZR7,0.393341468,1020.166367,Ni40 V25 Zr25 Co10 
1279,35,0,0,0,0,0,45,0,0,0,0,10,0,10,0,0,1000,152.8824168,False,5.110279017,BCC_B2,0.82138625,1139.792935,Mn45 Al35 Ta10 V10 
1280,35,0,30,0,0,0,0,0,0,0,0,25,0,10,0,0,1000,142.3710032,False,2.534008452,BCC_B2,0.57120978,1408.204009,Al35 Cr30 Ta25 V10 
1281,25,0,0,5,0,0,10,0,0,0,0,0,45,15,0,0,1000,102.2634488,False,8.531340082,BCC_B2#3,0.552193991,1048.172739,Ti45 Al25 V15 Mn10 Cu5 
1282,0,40,0,20,10,0,0,0,0,0,0,30,0,0,0,0,1000,422.1537979,False,23.4431588,C14_LAVES,0.620212558,1086.327217,Co40 Ta30 Cu20 Fe10 
1283,0,40,0,0,0,10,0,0,0,0,25,0,15,10,0,0,1000,448.1879212,False,25.61240338,C14_LAVES,0.749937328,877.3616421,Co40 Si25 Ti15 Hf10 V10 
1284,0,0,40,0,0,0,15,0,5,0,0,0,30,0,0,10,1000,233.4691883,False,14.86628899,C14_LAVES,0.852734117,1297.839969,Cr40 Ti30 Mn15 Zr10 Nb5 
1285,0,15,0,0,0,0,0,0,10,40,0,30,0,0,0,5,1000,842.4050862,False,2.873539913,MU_PHASE,0.76440161,931.5951832,Ni40 Ta30 Co15 Nb10 Zr5 
1286,0,5,0,0,0,0,0,0,10,15,35,0,0,35,0,0,1000,763.4463523,False,13.62767924,W5SI3_D8M,0.549736022,994.7348426,Si35 V35 Ni15 Nb10 Co5 
1287,15,20,0,0,0,0,45,0,0,15,5,0,0,0,0,0,1000,740.2584421,False,1.307492187,BCC_B2#2,0.776176658,1126.586432,Mn45 Co20 Al15 Ni15 Si5 
1288,0,0,15,40,30,0,0,0,15,0,0,0,0,0,0,0,1000,551.2692317,False,17.33418139,C14_LAVES,0.486712444,1085.733133,Cu40 Fe30 Cr15 Nb15 
1289,30,0,15,0,15,0,0,0,0,0,0,40,0,0,0,0,1000,413.5010166,False,0.700918158,C14_LAVES,0.527014324,1336.831129,Ta40 Al30 Cr15 Fe15 
1290,0,0,0,0,0,0,15,0,25,0,0,30,0,25,0,5,1000,811.4438824,False,47.40373988,BCC_B2,0.906614157,1261.90041,Ta30 Nb25 V25 Mn15 Zr5 
1292,0,0,0,0,15,10,0,0,0,0,25,0,25,0,0,25,1000,832.5743386,False,26.75669665,C16_THETA,0.329607687,1163.200856,Si25 Ti25 Zr25 Fe15 Hf10 
1296,0,0,0,0,25,0,0,0,0,0,0,25,0,15,0,35,1000,585.7173867,False,30.01706802,C15_LAVES,0.565063653,1005.347792,Zr35 Fe25 Ta25 V15 
1297,0,0,0,5,45,0,0,0,0,15,25,0,10,0,0,0,1000,467.4115724,False,9.184170329,BCC_B2#2,0.641012757,1062.19125,Fe45 Si25 Ni15 Ti10 Cu5 
1298,0,0,35,5,0,0,0,0,0,30,0,0,15,0,0,15,1000,759.827696,False,4.195081113,C14_LAVES,0.876260857,1056.468945,Cr35 Ni30 Ti15 Zr15 Cu5 
1299,0,0,0,0,20,0,0,0,10,30,0,30,0,0,0,10,1000,935.721952,False,5.729721524,MU_PHASE,0.4499725,1001.17488,Ni30 Ta30 Fe20 Nb10 Zr10 
1300,0,15,35,0,5,0,0,0,0,0,0,20,0,0,0,25,1000,339.4208764,False,7.245604946,C15_LAVES,0.710784208,1359.197281,Cr35 Zr25 Ta20 Co15 Fe5 
1301,5,0,0,20,0,0,0,0,15,0,0,0,0,25,0,35,1000,791.8810333,False,44.07529184,BCC_B2,0.419143199,820.8145688,Zr35 V25 Cu20 Nb15 Al5 
1303,0,0,40,0,30,15,0,0,0,0,10,5,0,0,0,0,1000,344.1365334,False,5.207226793,C14_LAVES,0.604830906,1283.383756,Cr40 Fe30 Hf15 Si10 Ta5 
1304,15,0,20,5,0,0,0,0,0,0,0,45,15,0,0,0,1000,1140.841608,False,2.849804152,SIGMA,0.560617924,876.3181953,Ta45 Cr20 Al15 Ti15 Cu5 
1305,5,20,25,15,0,0,0,0,0,0,35,0,0,0,0,0,1000,355.778931,False,5.705968469,FESI_B20,0.432984271,1048.629366,Si35 Cr25 Co20 Cu15 Al5 
1306,10,0,20,0,20,0,0,0,0,0,0,0,5,45,0,0,1000,174.0756447,False,13.12388765,BCC_B2,1.0,1520.365709,V45 Cr20 Fe20 Al10 Ti5 
1308,0,15,0,0,25,0,0,0,0,0,20,0,40,0,0,0,1000,473.0338585,False,32.65363058,C14_LAVES,0.771250002,1142.337237,Ti40 Fe25 Si20 Co15 
1311,0,0,0,0,45,25,0,0,15,0,0,0,0,15,0,0,1000,284.0820535,False,32.88889766,C15_LAVES,0.659285744,1321.063197,Fe45 Hf25 Nb15 V15 
1312,0,0,25,0,0,0,0,0,0,0,25,35,15,0,0,0,1000,138.3603888,False,6.470575168,C14_LAVES,0.560597487,1716.403812,Ta35 Cr25 Si25 Ti15 
1315,0,0,0,0,0,0,0,0,0,0,35,20,10,5,0,30,1000,1221.128306,False,30.71249718,C14_LAVES,0.545491235,1649.618482,Si35 Zr30 Ta20 Ti10 V5 
1316,0,15,25,0,0,25,0,0,0,0,5,30,0,0,0,0,1000,375.0334732,False,7.489093008,C15_LAVES,0.353126391,1377.680576,Ta30 Cr25 Hf25 Co15 Si5 
1320,0,25,0,0,25,0,0,0,15,35,0,0,0,0,0,0,1000,38.57698697,False,9.581135146,FCC_L12,0.501836166,1260.560843,Ni35 Co25 Fe25 Nb15 
1321,0,0,35,10,0,0,15,0,0,0,15,0,0,0,0,25,1000,1035.591262,False,10.95787568,BCC_B2,0.501447784,787.2900598,Cr35 Zr25 Mn15 Si15 Cu10 
1322,0,0,0,25,25,0,0,0,5,30,15,0,0,0,0,0,1000,177.3180657,False,5.268238865,BCC_B2#2,0.27508305,965.7215246,Ni30 Cu25 Fe25 Si15 Nb5 
1323,0,0,35,0,0,30,10,0,0,0,0,0,0,20,0,5,1000,242.6362741,False,15.60111541,C15_LAVES,0.687591107,1319.706355,Cr35 Hf30 V20 Mn10 Zr5 
1324,10,0,10,25,0,0,0,0,0,0,0,0,0,30,0,25,1000,770.1328002,False,15.39590544,BCC_B2,0.306239433,857.8671998,V30 Cu25 Zr25 Al10 Cr10 
1328,0,0,30,0,0,10,10,0,0,0,0,0,20,30,0,0,1000,187.0272761,False,20.22059289,BCC_B2#2,0.906529203,1342.263818,Cr30 V30 Ti20 Hf10 Mn10 
1329,0,0,0,0,20,15,5,0,0,0,0,0,0,45,0,15,1000,155.4214351,False,34.42660751,C15_LAVES,0.784276895,1153.37102,V45 Fe20 Hf15 Zr15 Mn5 
1330,0,0,0,0,15,15,45,0,10,0,0,0,0,0,0,15,1000,127.875338,False,17.95250778,C14_LAVES,1.0,1518.763641,Mn45 Fe15 Hf15 Zr15 Nb10 
1332,0,0,0,20,0,0,0,0,0,0,35,15,0,30,0,0,1000,803.3151672,False,34.88649077,W5SI3_D8M,0.467163445,921.0752818,Si35 V30 Cu20 Ta15 
1336,0,0,15,0,0,35,0,0,15,35,0,0,0,0,0,0,1000,265.5368917,False,5.116113074,BCC_B2#2,0.687371817,1294.612827,Hf35 Ni35 Cr15 Nb15 
1337,15,0,0,0,10,10,0,0,0,0,0,30,35,0,0,0,1000,853.6667456,False,6.300477815,BCC_B2,0.914348475,1153.524116,Ti35 Ta30 Al15 Fe10 Hf10 
1338,0,0,5,0,20,10,40,0,25,0,0,0,0,0,0,0,1000,83.25158813,False,31.86341722,C14_LAVES,1.0,1599.949428,Mn40 Nb25 Fe20 Hf10 Cr5 
1340,0,0,10,0,0,0,0,0,0,0,0,0,25,45,0,20,1000,184.5301198,False,57.3531257,BCC_B2,1.0,1270.754621,V45 Ti25 Zr20 Cr10 
1341,0,10,0,0,0,30,0,0,30,0,0,0,20,10,0,0,1000,683.6509185,False,49.42972471,BCC_B2,0.701691927,1238.995891,Hf30 Nb30 Ti20 Co10 V10 
1343,0,15,0,0,10,0,0,0,0,0,40,20,0,0,0,15,1000,1357.559194,False,16.04293091,C14_LAVES,0.600168829,850.1645897,Si40 Ta20 Co15 Zr15 Fe10 
1345,0,0,0,40,0,35,10,0,0,0,0,5,0,0,0,10,1000,1010.701079,False,15.28866921,CU10HF7,0.507114811,751.6626334,Cu40 Hf35 Mn10 Zr10 Ta5 
1348,15,0,0,10,0,45,0,0,0,0,0,30,0,0,0,0,1000,900.1326054,False,3.391328282,SIGMA,0.402262643,1158.043015,Hf45 Ta30 Al15 Cu10 
1349,0,0,10,45,0,0,0,0,20,0,0,0,0,0,0,25,1000,789.0530422,False,40.95012038,CU8ZR3,0.458815966,888.8657608,Cu45 Zr25 Nb20 Cr10 
1353,0,0,20,35,0,0,0,0,0,0,0,20,0,25,0,0,1000,611.9174476,False,18.20588908,C15_LAVES,0.585177489,1082.544884,Cu35 V25 Cr20 Ta20 
1354,0,0,0,40,5,0,0,0,0,25,10,0,20,0,0,0,1000,669.0157817,False,8.373652248,C14_LAVES#2,0.519342956,1062.733802,Cu40 Ni25 Ti20 Si10 Fe5 
1356,0,0,0,0,20,0,30,0,0,0,0,0,0,40,0,10,1000,136.9505829,False,52.27872036,BCC_B2,0.754272411,1252.366329,V40 Mn30 Fe20 Zr10 
1358,0,0,15,0,0,35,15,0,25,10,0,0,0,0,0,0,1000,470.7662906,False,7.209563383,C14_LAVES,0.449989914,1052.61054,Hf35 Nb25 Cr15 Mn15 Ni10 
1359,45,0,0,0,10,0,10,0,25,0,0,10,0,0,0,0,1000,573.7528615,False,4.682879254,C14_LAVES,0.498073297,1195.672725,Al45 Nb25 Fe10 Mn10 Ta10 
1360,0,0,15,0,30,0,0,0,0,0,0,25,30,0,0,0,1000,290.8070876,False,6.936360318,C14_LAVES,0.690836787,1256.295296,Fe30 Ti30 Ta25 Cr15 
1364,0,0,0,20,0,25,0,0,0,45,0,0,0,10,0,0,1000,225.5591286,False,12.02848983,NI5ZR_C15B,0.474608967,1003.609959,Ni45 Hf25 Cu20 V10 
1365,0,20,0,0,0,0,15,0,40,0,0,0,25,0,0,0,1000,261.6241773,False,51.28376354,BCC_B2#2,0.351137153,1061.851053,Nb40 Ti25 Co20 Mn15 
1367,0,25,0,15,0,10,35,0,0,0,0,0,0,0,0,15,1000,545.5526303,False,24.97445385,C14_LAVES,0.645264322,813.7974642,Mn35 Co25 Cu15 Zr15 Hf10 
1369,0,20,0,0,0,10,0,0,25,0,0,0,0,25,0,20,1000,578.241257,False,63.42621075,BCC_B2,0.485351482,1018.591055,Nb25 V25 Co20 Zr20 Hf10 
1370,15,0,0,0,0,10,40,0,0,0,0,10,0,25,0,0,1000,70.2587939,False,9.876488837,BCC_B2,0.607106931,1285.463987,Mn40 V25 Al15 Hf10 Ta10 
1372,0,30,0,0,0,0,0,0,0,0,15,15,40,0,0,0,1000,400.0822085,False,22.83782372,BCC_B2#2,0.454594168,1237.747932,Ti40 Co30 Si15 Ta15 
1373,0,0,0,20,0,45,0,0,0,10,20,0,0,5,0,0,1000,908.3533618,False,19.16779819,M3SI2_D5A,0.459226314,1041.533424,Hf45 Cu20 Si20 Ni10 V5 
1374,0,0,0,0,30,0,0,0,0,0,0,10,20,0,0,40,1000,199.3916941,False,25.91944051,BCC_B2#3,0.598315321,972.1911158,Zr40 Fe30 Ti20 Ta10 
1379,30,15,5,10,0,0,0,0,40,0,0,0,0,0,0,0,1000,926.7429758,False,3.415272722,C14_LAVES,0.55714329,1059.171529,Nb40 Al30 Co15 Cu10 Cr5 
1380,10,10,10,0,40,0,0,0,0,0,30,0,0,0,0,0,1000,66.6751986,False,1.117421944,BCC_B2,0.708120601,1174.832637,Fe40 Si30 Al10 Co10 Cr10 
1381,0,0,0,0,5,0,0,0,25,10,20,0,0,40,0,0,1000,877.1292183,False,33.33429213,CR3SI_A15,0.640233172,876.6351858,V40 Nb25 Si20 Ni10 Fe5 
1382,15,0,0,40,0,0,10,0,0,0,0,0,0,35,0,0,1000,571.2552327,False,10.21576542,BCC_B2,0.51117483,1011.986924,Cu40 V35 Al15 Mn10 
1383,0,20,0,0,0,25,0,0,0,0,20,0,0,20,0,15,1000,559.1975747,False,29.03063501,BCC_B2#2,0.401498923,1288.669554,Hf25 Co20 Si20 V20 Zr15 
1385,0,0,0,0,10,0,0,0,20,0,0,25,0,45,0,0,1000,375.7544467,False,48.68018134,BCC_B2,1.0,1657.397077,V45 Ta25 Nb20 Fe10 
1387,20,25,0,0,0,0,0,0,0,0,0,25,0,30,0,0,1000,181.0129819,False,3.910525687,C14_LAVES,0.539587716,1416.914889,V30 Co25 Ta25 Al20 
1391,0,0,45,0,0,20,15,0,20,0,0,0,0,0,0,0,1000,281.1499939,False,13.9702184,C14_LAVES,0.914109948,1568.726913,Cr45 Hf20 Nb20 Mn15 
1393,0,35,20,0,10,0,0,0,0,10,0,25,0,0,0,0,1000,258.5520284,False,3.204748125,C14_LAVES,0.895472137,1298.695521,Co35 Ta25 Cr20 Fe10 Ni10 
1395,0,0,0,0,0,0,0,0,20,0,0,45,0,10,0,25,1000,549.4862903,False,46.36456196,BCC_B2,1.0,1768.278686,Ta45 Zr25 Nb20 V10 
1397,0,0,15,15,0,35,0,0,0,35,0,0,0,0,0,0,1000,258.7111633,False,1.876044502,BCC_B2#2,0.598953922,1098.247235,Hf35 Ni35 Cr15 Cu15 
1398,0,0,30,0,0,35,0,0,15,20,0,0,0,0,0,0,1000,571.7975068,False,5.048610275,C15_LAVES,0.436427383,1103.202303,Hf35 Cr30 Ni20 Nb15 
1399,30,0,5,30,0,0,25,0,0,0,0,0,0,0,0,10,1000,532.427801,False,1.761113464,BCC_B2,0.712180356,888.2795971,Al30 Cu30 Mn25 Zr10 Cr5 
1400,30,0,0,0,0,40,0,0,15,0,0,0,0,15,0,0,1000,76.27025043,False,8.361334866,BCC_B2,0.974985642,1477.718788,Hf40 Al30 Nb15 V15 
1401,10,0,10,0,25,15,0,0,0,0,0,0,0,0,0,40,1000,453.9855481,False,5.616295529,BCC_B2#2,0.394735013,1032.803314,Zr40 Fe25 Hf15 Al10 Cr10 
1403,0,0,0,0,25,0,0,0,20,0,10,0,0,0,0,45,1000,393.4240956,False,47.21415809,C14_LAVES,0.619448394,1251.002754,Zr45 Fe25 Nb20 Si10 
1406,0,15,25,15,0,0,0,0,0,0,10,0,0,0,0,35,1000,627.4435719,False,10.56945491,C15_LAVES,0.391884295,1097.096551,Zr35 Cr25 Co15 Cu15 Si10 
1409,0,15,30,0,0,0,25,0,30,0,0,0,0,0,0,0,1000,326.4273976,False,19.1527324,C14_LAVES,0.89278916,1250.162157,Cr30 Nb30 Mn25 Co15 
1411,0,25,20,0,40,0,15,0,0,0,0,0,0,0,0,0,1000,12.67222025,False,10.3495048,FCC_L12,0.612219561,1356.458421,Fe40 Co25 Cr20 Mn15 
1412,45,15,0,10,0,0,0,0,0,0,0,0,30,0,0,0,1000,380.9828449,False,1.60999606,GPHASE_ALCOTI,0.636427192,898.7628417,Al45 Ti30 Co15 Cu10 
1413,0,0,25,0,0,0,0,0,0,40,0,5,20,10,0,0,1000,881.2230281,False,5.482682273,FCC_L12#2,0.415047763,600.0,Ni40 Cr25 Ti20 V10 Ta5 
1415,0,0,0,0,45,25,0,0,0,15,0,0,15,0,0,0,1000,528.1697292,False,8.565386033,BCC_B2#2,0.222479205,1073.1988,Fe45 Hf25 Ni15 Ti15 
1417,15,0,0,0,0,0,0,0,45,25,0,0,15,0,0,0,1000,456.6063371,False,3.809025126,BCC_B2#2,0.592803595,1157.811594,Nb45 Ni25 Al15 Ti15 
1421,10,0,0,0,0,0,0,0,30,0,0,0,35,0,0,25,1000,214.1282286,False,41.70121146,BCC_B2,1.0,1574.249966,Ti35 Nb30 Zr25 Al10 
1424,0,0,0,20,0,20,30,0,0,20,0,0,0,10,0,0,1000,404.7027444,False,16.34368767,BCC_B2,0.35796318,777.1439242,Mn30 Cu20 Hf20 Ni20 V10 
1426,0,0,0,15,30,10,0,0,25,0,20,0,0,0,0,0,1000,823.9376683,False,24.37718758,TA5SI3_D8L,0.332315055,957.2770914,Fe30 Nb25 Si20 Cu15 Hf10 
1427,0,10,0,0,35,0,0,0,0,0,0,0,0,15,0,40,1000,434.5646445,False,43.5570538,C15_LAVES,0.826351731,1001.134378,Zr40 Fe35 V15 Co10 
1432,40,0,0,0,5,0,0,0,0,15,10,0,0,0,0,30,1000,407.1377879,False,0.291257162,C14_LAVES,0.899565981,1151.474813,Al40 Zr30 Ni15 Si10 Fe5 
1433,10,0,0,0,0,35,0,0,0,20,0,0,10,0,0,25,1000,197.2489202,False,5.170751105,C16_THETA,0.649457419,701.2898566,Hf35 Zr25 Ni20 Al10 Ti10 
1435,0,0,0,10,0,0,0,0,0,0,20,40,30,0,0,0,1000,878.1023574,False,21.83542687,M5SI3_D88,0.438351245,1059.789838,Ta40 Ti30 Si20 Cu10 
1437,0,25,10,0,35,0,0,0,0,0,0,0,5,0,0,25,1000,184.57071,False,23.40401895,C15_LAVES,1.0,1345.936829,Fe35 Co25 Zr25 Cr10 Ti5 
1439,0,0,0,10,0,10,30,0,0,0,0,45,0,5,0,0,1000,1108.022623,False,25.46537626,BCC_B2,0.351328738,889.3182559,Ta45 Mn30 Cu10 Hf10 V5 
1441,0,0,0,15,20,25,0,0,25,0,0,0,0,15,0,0,1000,469.3131768,False,42.34358968,C15_LAVES,0.370942795,972.7492076,Hf25 Nb25 Fe20 Cu15 V15 
1442,10,45,0,5,0,0,0,0,0,0,0,25,0,0,0,15,1000,722.7185051,False,7.662525865,C14_LAVES,0.737246268,1015.591745,Co45 Ta25 Zr15 Al10 Cu5 
1443,20,0,0,0,5,40,20,0,0,0,0,0,0,0,0,15,1000,150.5433832,False,4.835937906,C14_LAVES,0.369686243,1266.175535,Hf40 Al20 Mn20 Zr15 Fe5 
1445,0,0,5,0,30,0,0,0,15,0,25,25,0,0,0,0,1000,790.1024346,False,22.99071951,C14_LAVES,0.564755467,1057.580516,Fe30 Si25 Ta25 Nb15 Cr5 
1446,0,0,0,20,0,25,0,0,5,0,25,0,0,25,0,0,1000,817.6426972,False,29.24585322,CR3SI_A15,0.353249377,1005.197511,Hf25 Si25 V25 Cu20 Nb5 
1448,0,0,0,30,0,35,0,0,0,0,15,0,0,0,0,20,1000,1197.336737,False,21.68397376,CU10HF7,0.457692308,862.6493349,Hf35 Cu30 Zr20 Si15 
1449,0,10,0,0,0,0,10,0,0,10,0,30,0,40,0,0,1000,402.8351664,False,18.31708535,BCC_B2,0.759636795,1138.689301,V40 Ta30 Co10 Mn10 Ni10 
1450,0,30,0,0,20,0,0,0,25,0,25,0,0,0,0,0,1000,629.2513519,False,48.233938,TA5SI3_D8L,0.288422937,842.9309816,Co30 Nb25 Si25 Fe20 
1451,0,0,0,45,20,0,15,0,0,0,0,0,0,0,0,20,1000,565.1446997,False,36.28606404,C14_LAVES,0.433150296,789.4058818,Cu45 Fe20 Zr20 Mn15 
1452,0,0,0,20,0,0,0,0,5,10,0,25,40,0,0,0,1000,680.9840394,False,10.0320735,BCC_B2,0.368153567,925.6218297,Ti40 Ta25 Cu20 Ni10 Nb5 
1454,0,20,0,0,0,15,30,0,0,0,5,0,0,0,0,30,1000,157.2493664,False,22.55280415,C14_LAVES,0.59292529,1214.963593,Mn30 Zr30 Co20 Hf15 Si5 
1456,35,20,0,0,0,15,0,0,25,5,0,0,0,0,0,0,1000,230.7468657,False,2.470020232,C14_LAVES,0.860952148,1639.184116,Al35 Nb25 Co20 Hf15 Ni5 
1458,0,10,0,0,0,0,0,0,15,0,0,20,10,0,0,45,1000,757.8609036,False,36.16895288,BCC_B2,0.542412841,1022.681852,Zr45 Ta20 Nb15 Co10 Ti10 
1459,20,10,0,0,15,0,20,0,0,35,0,0,0,0,0,0,1000,146.1675955,False,0.355620313,BCC_B2#3,1.0,1290.423467,Ni35 Al20 Mn20 Fe15 Co10 
1460,0,0,0,0,0,20,0,0,0,40,0,0,30,0,0,10,1000,578.5115142,False,9.47903862,C16_THETA,0.536985553,855.4033438,Ni40 Ti30 Hf20 Zr10 
1463,0,15,25,0,0,40,15,0,0,5,0,0,0,0,0,0,1000,283.0285514,False,4.563744675,C14_LAVES,0.601282374,1421.700759,Hf40 Cr25 Co15 Mn15 Ni5 
1464,0,0,0,40,0,0,0,0,30,20,10,0,0,0,0,0,1000,698.0941512,False,11.57455399,FCC_L12,0.410138461,931.493537,Cu40 Nb30 Ni20 Si10 
1466,0,0,0,0,0,0,0,0,0,25,20,40,15,0,0,0,1000,955.3483932,False,7.810982783,C16_THETA,0.442078537,998.1729806,Ta40 Ni25 Si20 Ti15 
1467,0,40,0,10,0,0,0,0,15,0,0,0,25,10,0,0,1000,197.5150593,False,64.13763867,BCC_B2#2,0.445577099,1024.458459,Co40 Ti25 Nb15 Cu10 V10 
1470,0,0,0,0,0,0,0,0,0,40,5,10,20,0,0,25,1000,930.3217036,False,9.257654807,BCC_B2#2,0.703554636,1195.273868,Ni40 Zr25 Ti20 Ta10 Si5 
1471,0,0,20,0,0,15,35,0,0,0,0,0,30,0,0,0,1000,337.9382014,False,12.04130227,C14_LAVES,0.815732776,1304.716745,Mn35 Ti30 Cr20 Hf15 
1472,0,0,0,15,0,0,30,0,0,5,25,25,0,0,0,0,1000,572.5138801,False,14.75160779,MN6NISI3,0.415924799,828.6102299,Mn30 Si25 Ta25 Cu15 Ni5 
1473,0,30,0,0,0,10,0,0,0,0,40,0,0,20,0,0,1000,813.4593508,False,34.37002632,FESI_B20,0.379998466,895.3552002,Si40 Co30 V20 Hf10 
1474,15,0,0,0,0,0,30,0,35,0,15,0,0,0,0,5,1000,589.0945611,False,6.564832263,TA5SI3_D8L,0.397549042,1145.831731,Nb35 Mn30 Al15 Si15 Zr5 
1476,0,0,20,0,10,0,20,0,0,0,15,0,0,0,0,35,1000,597.7125967,False,12.14707775,C14_LAVES,0.630140509,1150.554717,Zr35 Cr20 Mn20 Si15 Fe10 
1477,0,35,0,20,0,0,35,0,0,10,0,0,0,0,0,0,1000,60.61992737,False,25.99595778,FCC_L12,1.0,1102.365009,Co35 Mn35 Cu20 Ni10 
1478,0,0,0,0,0,15,0,0,30,0,0,0,5,40,0,10,1000,234.8747545,False,60.29217517,BCC_B2,1.0,1470.411377,V40 Nb30 Hf15 Zr10 Ti5 
1479,0,10,25,0,15,30,0,0,0,0,0,0,0,0,0,20,1000,251.1493851,False,11.6249518,C15_LAVES,0.618807947,1422.841731,Hf30 Cr25 Zr20 Fe15 Co10 
1481,0,0,15,0,10,40,10,0,0,0,0,0,25,0,0,0,1000,288.0286316,False,13.00588834,BCC_B2,0.554762068,1231.351484,Hf40 Ti25 Cr15 Fe10 Mn10 
1482,20,0,0,0,0,15,0,0,0,0,0,25,40,0,0,0,1000,502.712993,False,2.813992923,BCC_B2,1.0,1538.374876,Ti40 Ta25 Al20 Hf15 
1483,0,0,0,30,30,0,25,0,0,0,0,15,0,0,0,0,1000,687.1607827,False,27.07940615,FCC_L12#2,0.452818423,891.5336279,Cu30 Fe30 Mn25 Ta15 
1484,0,0,20,25,0,25,0,0,0,0,0,0,0,5,0,25,1000,728.0089425,False,20.97698265,MOSI2_C11B,0.47987935,789.9877405,Cu25 Hf25 Zr25 Cr20 V5 
1488,10,10,45,0,25,0,0,0,0,0,0,10,0,0,0,0,1000,57.15530724,False,1.478424538,BCC_B2,0.72295499,1435.744091,Cr45 Fe25 Al10 Co10 Ta10 
1490,0,0,0,0,0,30,10,0,0,0,0,0,0,25,0,35,1000,261.0404244,False,33.71138743,BCC_B2,0.829995214,1136.533584,Zr35 Hf30 V25 Mn10 
1493,35,0,0,0,0,0,35,0,15,0,0,0,0,0,0,15,1000,148.5244385,False,7.816791132,C14_LAVES#2,0.902106193,1176.85939,Al35 Mn35 Nb15 Zr15 
1495,0,0,10,10,0,0,40,0,0,30,10,0,0,0,0,0,1000,2040.121927,False,10.81793531,MN3NI2SI,0.405475911,959.8780734,Mn40 Ni30 Cr10 Cu10 Si10 
1498,15,0,0,40,0,30,0,0,0,0,10,5,0,0,0,0,1000,1336.42687,False,2.911818526,M3SI2_D5A,0.141982268,600.0,Cu40 Hf30 Al15 Si10 Ta5 
1500,0,0,0,30,0,10,0,0,0,0,0,5,45,0,0,10,1000,665.1147852,False,20.33048102,MOSI2_C11B,0.89976668,901.431672,Ti45 Cu30 Hf10 Zr10 Ta5 
1502,0,35,0,0,0,10,0,0,0,0,0,0,40,15,0,0,1000,329.6262847,False,31.04714903,BCC_B2#3,0.784335392,1150.677891,Ti40 Co35 V15 Hf10 
1506,0,10,0,0,0,0,10,0,0,0,0,0,15,40,0,25,1000,659.122163,False,58.20740869,BCC_B2#3,0.584030452,723.683157,V40 Zr25 Ti15 Co10 Mn10 
1508,40,10,10,0,0,0,0,0,40,0,0,0,0,0,0,0,1000,229.4048573,False,2.810416615,C14_LAVES,0.903959503,1793.536349,Al40 Nb40 Co10 Cr10 
1510,0,10,45,0,30,0,0,0,0,0,0,10,0,0,0,5,1000,156.6569307,False,3.603225198,BCC_B2,0.508434035,1434.082044,Cr45 Fe30 Co10 Ta10 Zr5 
1513,0,35,0,20,0,0,30,0,0,0,0,0,0,0,0,15,1000,285.8787063,False,36.90043301,FCC_L12,0.550475664,907.3306013,Co35 Mn30 Cu20 Zr15 
1516,0,0,35,0,0,0,30,0,0,0,20,15,0,0,0,0,1000,583.2722096,False,8.376574512,C14_LAVES,0.449991855,850.90368,Cr35 Mn30 Si20 Ta15 