,Al,Co,Cr,Cu,Fe,Hf,Mn,Mo,Nb,Ni,Si,Ta,Ti,V,W,Zr,T (C),freeze_range,literature,mass_change,max_phase,max_phase_fraction,solidus,composition
1016,0,0,0,0,0,5,0,0,45,25,0,15,10,0,0,0,1000,1055.361867,False,9.804477212,BCC_B2,0.422251237,790.4831345,Nb45 Ni25 Ta15 Ti10 Hf5 
1019,0,0,0,0,0,0,20,0,20,0,0,15,0,0,0,45,1000,413.231627,False,41.67184607,C14_LAVES,0.616046518,1257.545077,Zr45 Mn20 Nb20 Ta15 
1021,0,0,10,0,0,0,0,0,0,10,0,0,0,35,0,45,1000,597.9747514,False,21.28103631,C15_LAVES,0.685990122,927.0027998,Zr45 V35 Cr10 Ni10 
1023,0,0,0,5,35,0,20,0,0,0,0,0,25,15,0,0,1000,437.951308,False,53.80751103,C14_LAVES,0.72934523,851.5501908,Fe35 Ti25 Mn20 V15 Cu5 
1024,0,0,35,0,0,25,0,0,0,30,0,0,0,0,0,10,1000,406.364335,False,2.552757705,C15_LAVES,0.897579337,1167.861776,Cr35 Ni30 Hf25 Zr10 
1025,0,40,25,15,0,0,0,0,0,0,0,0,20,0,0,0,1000,163.5306677,False,9.165316414,C15_LAVES,0.576696701,1076.241826,Co40 Cr25 Ti20 Cu15 
1029,0,0,0,0,0,0,25,0,0,0,5,10,0,45,0,15,1000,208.6031618,False,40.38814628,BCC_B2,0.787252185,1156.813338,V45 Mn25 Zr15 Ta10 Si5 
1030,35,0,0,0,10,30,0,0,0,10,15,0,0,0,0,0,1000,788.8679356,False,0.412210134,BCC_B2#2,0.39607554,1102.864603,Al35 Hf30 Si15 Fe10 Ni10 
1031,0,20,10,0,20,0,0,0,45,5,0,0,0,0,0,0,1000,209.7569647,False,19.73216592,C14_LAVES,0.601612689,1377.535704,Nb45 Co20 Fe20 Cr10 Ni5 
1033,0,0,0,15,0,0,0,0,0,40,0,35,10,0,0,0,1000,639.9767909,False,6.047930582,MU_PHASE,0.333676779,759.6417419,Ni40 Ta35 Cu15 Ti10 
1034,0,45,0,0,10,0,0,0,5,10,30,0,0,0,0,0,1000,425.6084474,False,10.96526046,CO2SI_C23,0.870624637,871.8415233,Co45 Si30 Fe10 Ni10 Nb5 
1035,0,0,0,0,0,15,0,0,0,40,0,35,10,0,0,0,1000,846.7373307,False,5.870286937,C16_THETA,0.692307692,630.0481165,Ni40 Ta35 Hf15 Ti10 
1036,0,30,0,0,0,0,0,0,0,0,20,20,0,10,0,20,1000,714.4086659,False,27.64190677,C14_LAVES,0.508127846,1089.206376,Co30 Si20 Ta20 Zr20 V10 
1038,0,0,0,0,45,0,5,0,0,0,10,25,0,0,0,15,1000,192.9358258,False,17.11551335,C14_LAVES,0.785924927,1413.493897,Fe45 Ta25 Zr15 Si10 Mn5 
1039,0,10,0,0,0,40,0,0,30,20,0,0,0,0,0,0,1000,894.1733707,False,11.08557797,BCC_B2#2,0.42852991,1111.37225,Hf40 Nb30 Ni20 Co10 
1040,0,0,0,40,0,0,30,0,0,0,20,0,0,10,0,0,1000,824.0596623,False,69.26449394,CU5MN4SI,0.318906663,820.4889273,Cu40 Mn30 Si20 V10 
1041,5,0,10,0,0,45,0,0,25,0,0,0,15,0,0,0,1000,258.8042005,False,15.51330444,BCC_B2,1.0,1498.001151,Hf45 Nb25 Ti15 Cr10 Al5 
1042,10,35,0,35,5,0,0,0,0,0,15,0,0,0,0,0,1000,351.1197835,False,8.510212304,FCC_L12,0.381235526,1079.533218,Co35 Cu35 Si15 Al10 Fe5 
1046,25,0,0,0,0,0,20,0,25,20,0,0,0,0,0,10,1000,206.4539571,False,2.313835005,C14_LAVES,0.650469755,1205.338215,Al25 Nb25 Mn20 Ni20 Zr10 
1047,0,0,0,0,5,15,25,0,0,0,25,0,0,30,0,0,1000,742.0670349,False,40.50939005,BCC_B2,0.432870531,1002.161837,V30 Mn25 Si25 Hf15 Fe5 
1050,0,0,15,0,0,0,20,0,0,0,40,10,0,15,0,0,1000,381.2543226,False,24.58740953,FESI_B20,0.284071568,1072.568712,Si40 Mn20 Cr15 V15 Ta10 
1052,0,0,15,0,15,0,0,0,15,45,10,0,0,0,0,0,1000,382.4357718,False,4.012057863,C14_LAVES,0.351502397,863.6849879,Ni45 Cr15 Fe15 Nb15 Si10 
1053,0,0,0,10,20,0,0,0,0,0,30,35,0,0,0,5,1000,1098.088318,False,14.46142666,C14_LAVES,0.486155607,979.1967061,Ta35 Si30 Fe20 Cu10 Zr5 
1054,0,0,0,15,40,35,0,0,0,0,10,0,0,0,0,0,1000,455.2979547,False,26.14071632,C15_LAVES,0.60737397,1092.010501,Fe40 Hf35 Cu15 Si10 
1055,0,0,0,35,0,0,5,0,0,10,20,0,0,0,0,30,1000,874.5044342,False,11.83748159,M3SI2_D5A,0.264071436,914.6220575,Cu35 Zr30 Si20 Ni10 Mn5 
1056,10,0,0,25,35,0,0,0,0,0,0,0,0,30,0,0,1000,358.8800686,False,17.01912171,BCC_B2#2,0.739368501,1061.580082,Fe35 V30 Cu25 Al10 
1057,0,0,0,10,5,0,35,0,0,0,15,0,0,35,0,0,1000,608.992318,False,74.46379405,CR3SI_A15,0.449771881,859.7620118,Mn35 V35 Si15 Cu10 Fe5 
1058,35,0,15,0,0,35,0,0,0,0,0,0,15,0,0,0,1000,242.5017523,False,0.997216842,AL3ZR4,0.496002211,1157.43833,Al35 Hf35 Cr15 Ti15 
1061,0,0,25,20,15,0,0,0,0,5,0,35,0,0,0,0,1000,536.7767897,False,3.468508943,C15_LAVES,0.481769605,1082.836451,Ta35 Cr25 Cu20 Fe15 Ni5 
1062,0,0,0,10,0,0,0,0,35,15,0,0,0,0,0,40,1000,854.1693226,False,17.10044814,BCC_B2,0.409811993,969.8169623,Zr40 Nb35 Ni15 Cu10 
1063,25,0,15,25,0,0,0,0,0,0,0,0,0,0,0,35,1000,822.2392533,False,0.949179624,C14_LAVES,0.548691273,823.6032715,Zr35 Al25 Cu25 Cr15 
1066,20,0,0,0,35,0,30,0,0,0,0,0,5,0,0,10,1000,286.3747999,False,3.027702452,BCC_B2,0.796538338,1303.897497,Fe35 Mn30 Al20 Zr10 Ti5 
1067,0,0,0,0,0,0,35,0,10,0,20,0,0,35,0,0,1000,559.5458374,False,52.72355612,CR3SI_A15,0.375417957,996.7119051,Mn35 V35 Si20 Nb10 
1068,30,0,0,10,0,0,0,0,0,30,0,0,30,0,0,0,1000,181.3578904,False,0.362922491,BCC_B2#2,0.776712904,1002.392806,Al30 Ni30 Ti30 Cu10 
1069,0,0,0,0,30,0,10,0,0,0,0,0,0,35,0,25,1000,129.9054585,False,49.13181489,C15_LAVES,0.495950001,1119.942787,V35 Fe30 Zr25 Mn10 
1070,0,0,35,35,0,15,0,0,0,0,5,10,0,0,0,0,1000,624.8002272,False,7.495352163,CU51HF14,0.446076253,1089.237917,Cr35 Cu35 Hf15 Ta10 Si5 
1071,0,0,0,25,0,0,0,0,0,30,10,0,0,0,0,35,1000,283.3939618,False,7.722960634,NI5ZR_C15B,0.307816403,1018.539362,Zr35 Ni30 Cu25 Si10 
1072,15,0,0,0,0,0,0,0,15,20,0,0,20,30,0,0,1000,398.3438085,False,8.789270874,BCC_B2,0.587399174,1037.865493,V30 Ni20 Ti20 Al15 Nb15 
1075,5,0,0,0,20,0,0,0,0,10,35,30,0,0,0,0,1000,455.1777261,False,4.80129846,FESI_B20,0.382466707,959.794563,Si35 Ta30 Fe20 Ni10 Al5 
1079,0,0,0,30,15,0,5,0,0,15,0,0,0,0,0,35,1000,399.5783841,False,9.133945021,BCC_B2,0.46028825,879.228899,Zr35 Cu30 Fe15 Ni15 Mn5 
1080,20,0,0,0,0,40,0,0,10,10,0,0,0,20,0,0,1000,624.1016722,False,1.577241391,C16_THETA,0.534121427,877.661763,Hf40 Al20 V20 Nb10 Ni10 
1081,15,0,0,0,5,0,25,0,0,40,0,15,0,0,0,0,1000,431.5329487,False,1.175713326,C14_LAVES#2,0.187167576,994.1905115,Ni40 Mn25 Al15 Ta15 Fe5 
1082,0,35,0,0,0,0,30,0,0,0,20,0,15,0,0,0,1000,364.5628847,False,35.8428239,FCC_L12,0.550505749,715.8862778,Co35 Mn30 Si20 Ti15 
1084,25,0,0,0,20,0,0,0,0,0,0,0,20,35,0,0,1000,356.2679367,False,7.35563105,BCC_B2,0.647472864,1028.558984,V35 Al25 Fe20 Ti20 
1085,30,0,0,0,20,0,0,0,0,5,0,20,0,25,0,0,1000,182.471189,False,1.516778908,BCC_B2#2,0.620426482,1421.78436,Al30 V25 Fe20 Ta20 Ni5 
1086,30,0,15,0,0,0,0,0,0,25,0,0,15,0,0,15,1000,511.2480211,False,0.535304468,C14_LAVES,0.693567321,1153.688117,Al30 Ni25 Cr15 Ti15 Zr15 
1091,0,0,0,0,0,0,0,0,40,0,20,0,30,0,0,10,1000,354.9897834,False,60.23769269,M3SI,0.791859688,1545.186341,Nb40 Ti30 Si20 Zr10 
1094,0,0,0,0,5,35,0,0,35,10,0,0,0,0,0,15,1000,1114.862704,False,15.17693568,BCC_B2,0.383803572,777.4235586,Hf35 Nb35 Zr15 Ni10 Fe5 
1095,30,15,0,0,0,35,5,0,0,0,0,15,0,0,0,0,1000,387.0234315,False,2.330425071,C14_LAVES,0.437041699,1180.488284,Hf35 Al30 Co15 Ta15 Mn5 
1096,0,0,20,10,25,15,0,0,0,0,30,0,0,0,0,0,1000,618.1266221,False,7.269406873,G_PHASE,0.361530097,967.6810803,Si30 Fe25 Cr20 Hf15 Cu10 
1098,0,0,0,0,0,0,0,0,0,15,35,0,20,0,0,30,1000,747.0759158,False,12.88753729,ZR5SI4_TP36,0.629126883,1433.88644,Si35 Zr30 Ti20 Ni15 
1099,0,0,0,30,0,5,0,0,0,35,10,0,0,20,0,0,1000,467.7550283,False,14.04075144,FCC_L12,0.323338279,821.2047451,Ni35 Cu30 V20 Si10 Hf5 
1100,0,0,25,0,0,15,0,0,0,0,0,5,0,20,0,35,1000,143.6206199,False,17.77791773,C15_LAVES,0.701399498,1359.656681,Zr35 Cr25 V20 Hf15 Ta5 
1101,0,0,25,0,0,0,0,0,30,0,0,25,0,0,0,20,1000,575.105935,False,29.26156684,BCC_B2,0.699434959,1438.841226,Nb30 Cr25 Ta25 Zr20 
1102,0,0,0,0,0,0,0,0,35,30,15,0,0,0,0,20,1000,933.4255265,False,13.70338951,TA5SI3_D8L,0.383784934,842.9375478,Nb35 Ni30 Zr20 Si15 
1104,30,0,0,0,0,0,0,0,20,40,0,0,0,0,0,10,1000,391.42582,False,0.739532016,C14_LAVES,0.698862018,1296.763283,Ni40 Al30 Nb20 Zr10 
1105,0,40,0,15,15,25,0,0,5,0,0,0,0,0,0,0,1000,532.8758953,False,20.40749044,C15_LAVES,0.721305334,1038.124989,Co40 Hf25 Cu15 Fe15 Nb5 
1106,0,0,0,30,30,0,0,0,0,10,30,0,0,0,0,0,1000,203.0087055,False,20.33883157,FESI_B20,0.309631316,1040.752914,Cu30 Fe30 Si30 Ni10 
1108,15,40,0,0,5,15,0,0,0,0,0,0,0,25,0,0,1000,423.7320431,False,9.004571212,BCC_B2#2,0.55079254,1337.730198,Co40 V25 Al15 Hf15 Fe5 
1109,45,0,0,0,20,0,0,0,0,15,0,0,10,0,0,10,1000,161.3581101,False,0.365505454,G_PHASE#2,0.444472097,1152.41946,Al45 Fe20 Ni15 Ti10 Zr10 
1110,0,0,25,25,10,0,20,0,20,0,0,0,0,0,0,0,1000,695.9417612,False,18.61670559,C14_LAVES,0.598797937,896.7931204,Cr25 Cu25 Mn20 Nb20 Fe10 
1113,35,0,15,0,30,0,10,0,10,0,0,0,0,0,0,0,1000,86.13774523,False,0.634440722,BCC_B2#2,0.779561895,1400.465645,Al35 Fe30 Cr15 Mn10 Nb10 
1114,20,0,0,25,0,0,0,0,30,0,0,15,0,10,0,0,1000,719.3438851,False,13.07452115,SIGMA,0.408313494,1053.443245,Nb30 Cu25 Al20 Ta15 V10 
1115,20,0,0,0,0,0,20,0,0,0,0,0,0,15,0,45,1000,170.3976406,False,10.02647741,AL3ZR5,0.493634074,1008.333329,Zr45 Al20 Mn20 V15 
1116,0,40,10,0,0,5,30,0,0,0,0,15,0,0,0,0,1000,290.5201915,False,22.95537648,C14_LAVES,0.595700495,1045.108233,Co40 Mn30 Ta15 Cr10 Hf5 
1117,0,15,35,0,15,0,0,0,0,15,20,0,0,0,0,0,1000,248.8158856,False,1.334312355,FCC_L12,0.470055415,1058.125528,Cr35 Si20 Co15 Fe15 Ni15 
1118,10,0,30,5,0,0,0,0,25,30,0,0,0,0,0,0,1000,705.7508949,False,3.164534559,C14_LAVES,0.757237811,976.6876874,Cr30 Ni30 Nb25 Al10 Cu5 
1120,0,0,0,0,0,0,45,0,20,0,0,10,0,25,0,0,1000,58.49848921,False,63.0885193,BCC_B2#2,0.688078161,1269.180595,Mn45 V25 Nb20 Ta10 
1121,0,45,25,0,0,0,5,0,0,0,0,0,0,10,0,15,1000,148.6314849,False,21.9442702,BCC_B2,0.515025685,1220.159926,Co45 Cr25 Zr15 V10 Mn5 
1122,0,0,0,15,0,0,30,0,0,0,0,0,40,0,0,15,1000,321.0853261,False,40.0569671,C14_LAVES,0.506600496,800.4831994,Ti40 Mn30 Cu15 Zr15 
1123,0,10,15,0,0,0,0,0,0,45,0,10,0,20,0,0,1000,76.46087574,False,3.988314069,NI3TA_D0A,0.368336073,1186.395887,Ni45 V20 Cr15 Co10 Ta10 
1128,5,0,0,0,10,0,0,0,0,20,35,0,0,30,0,0,1000,580.2052371,False,13.223239,W5SI3_D8M,0.478921759,1121.611334,Si35 V30 Ni20 Fe10 Al5 
1129,0,40,0,10,10,0,35,0,0,5,0,0,0,0,0,0,1000,61.34681032,False,37.66604707,FCC_L12,1.0,1165.32766,Co40 Mn35 Cu10 Fe10 Ni5 
1130,0,15,0,0,0,0,0,0,10,30,0,45,0,0,0,0,1000,57.53987605,False,4.53010358,MU_PHASE,0.576052014,1708.271955,Ta45 Ni30 Co15 Nb10 
1131,20,0,40,10,0,0,0,0,0,0,0,0,30,0,0,0,1000,677.6754592,False,4.823249838,C14_LAVES,0.865663805,942.5533823,Cr40 Ti30 Al20 Cu10 
1133,0,0,0,0,0,0,15,0,20,30,0,0,30,5,0,0,1000,32.93118431,False,20.52819521,BCC_B2#2,0.751640213,941.3007784,Ni30 Ti30 Nb20 Mn15 V5 
1134,0,20,0,20,20,0,0,0,0,0,0,40,0,0,0,0,1000,517.7524915,False,23.09850995,MU_PHASE,0.799421062,1086.279839,Ta40 Co20 Cu20 Fe20 
1136,40,15,0,0,0,0,0,0,20,20,0,5,0,0,0,0,1000,352.6047803,False,0.997362307,C14_LAVES,0.735458706,1610.46965,Al40 Nb20 Ni20 Co15 Ta5 
1137,0,0,40,0,0,10,0,0,30,0,0,0,0,15,0,5,1000,103.0377557,False,29.79247624,BCC_B2#2,0.660490947,1403.771771,Cr40 Nb30 V15 Hf10 Zr5 
1138,0,0,0,0,10,0,0,0,0,5,0,45,0,25,0,15,1000,1018.0631,False,17.06941127,BCC_B2,0.498341088,1061.271947,Ta45 V25 Zr15 Fe10 Ni5 
1141,10,5,0,35,0,10,0,0,40,0,0,0,0,0,0,0,1000,885.1314227,False,14.48176623,BCC_B2,0.2544139,885.7618155,Nb40 Cu35 Al10 Hf10 Co5 
1142,0,25,15,0,5,0,0,0,0,35,0,0,0,20,0,0,1000,37.53320147,False,8.035764322,FCC_L12,1.0,1334.449895,Ni35 Co25 V20 Cr15 Fe5 
1144,0,0,0,0,0,10,0,0,20,0,40,0,0,15,0,15,1000,362.3791597,False,49.37185719,ZR5SI4_TP36,0.645712638,1792.755425,Si40 Nb20 V15 Zr15 Hf10 
1146,0,0,20,20,0,0,0,0,10,0,15,35,0,0,0,0,1000,669.232737,False,8.037849666,M3SI,0.399204648,1081.935161,Ta35 Cr20 Cu20 Si15 Nb10 
1147,0,15,15,0,0,0,0,0,0,0,25,40,5,0,0,0,1000,596.5001923,False,9.377408233,C14_LAVES,0.61768198,986.0340696,Ta40 Si25 Co15 Cr15 Ti5 
1148,0,0,0,30,0,5,15,0,0,35,0,0,15,0,0,0,1000,463.1483816,False,7.319886179,T1CUNITI,0.363763778,801.8852047,Ni35 Cu30 Mn15 Ti15 Hf5 
1149,0,40,0,10,0,0,0,0,0,10,0,0,25,15,0,0,1000,137.6953078,False,23.36581953,BCC_B2#2,0.483177545,1068.242617,Co40 Ti25 V15 Cu10 Ni10 
1150,0,0,0,5,20,0,30,0,0,20,25,0,0,0,0,0,1000,2100.791149,False,11.99574665,BCC_B2,0.344821227,899.2088512,Mn30 Si25 Fe20 Ni20 Cu5 
1152,40,0,0,0,0,0,0,0,0,5,0,10,20,0,0,25,1000,163.4154041,False,1.242607461,C15_LAVES,0.402185406,1378.444063,Al40 Zr25 Ti20 Ta10 Ni5 
1153,0,0,35,0,0,30,25,0,0,0,0,10,0,0,0,0,1000,209.0268408,False,9.414760045,C14_LAVES,1.0,1731.57313,Cr35 Hf30 Mn25 Ta10 
1155,0,40,0,0,10,0,5,0,0,35,0,0,10,0,0,0,1000,108.2762922,False,7.513272844,FCC_L12#2,1.0,1162.352023,Co40 Ni35 Fe10 Ti10 Mn5 
1156,20,0,0,0,0,0,15,0,0,10,0,0,25,0,0,30,1000,82.9067445,False,1.725301183,C14_LAVES,0.544631294,989.0663667,Zr30 Ti25 Al20 Mn15 Ni10 
1158,0,0,0,25,0,10,35,0,0,0,0,0,0,0,0,30,1000,575.6569409,False,26.18872782,C14_LAVES,0.530344189,746.3187156,Mn35 Zr30 Cu25 Hf10 
1159,10,0,0,25,0,10,40,0,0,15,0,0,0,0,0,0,1000,167.0054881,False,5.008160424,FCC_L12,0.614380809,822.9161565,Mn40 Cu25 Ni15 Al10 Hf10 
1163,0,5,0,0,0,45,0,0,10,0,0,0,0,25,0,15,1000,224.0597683,False,26.59456132,BCC_B2,0.675326163,1263.761321,Hf45 V25 Zr15 Nb10 Co5 
1165,0,0,0,0,0,25,0,0,25,0,20,30,0,0,0,0,1000,534.2891154,False,26.75313703,M5SI3_D88,0.533317864,2041.944275,Ta30 Hf25 Nb25 Si20 
1166,0,0,0,0,35,0,0,0,40,0,0,15,10,0,0,0,1000,161.5199022,False,30.49099082,C14_LAVES,0.726296519,1448.885286,Nb40 Fe35 Ta15 Ti10 
1167,0,0,0,0,0,0,0,0,30,0,30,0,10,30,0,0,1000,84.48050812,False,77.73906459,CR3SI_A15,0.694890996,1816.022602,Nb30 Si30 V30 Ti10 
1168,0,15,0,0,0,0,0,0,0,25,0,0,35,5,0,20,1000,529.7167535,False,18.64299391,BCC_B2#2,0.837511341,1086.111659,Ti35 Ni25 Zr20 Co15 V5 
1170,0,10,0,0,15,0,0,0,20,0,0,0,15,40,0,0,1000,291.1516423,False,83.09214179,BCC_B2,0.81762398,1071.187178,V40 Nb20 Fe15 Ti15 Co10 
1172,25,30,0,25,0,0,0,0,0,0,0,15,5,0,0,0,1000,860.8120301,False,2.880185013,C14_LAVES,0.345748684,1001.86662,Co30 Al25 Cu25 Ta15 Ti5 
1174,0,0,30,35,10,0,0,0,0,0,15,0,0,0,0,10,1000,550.7463628,False,7.177970697,CR3SI_A15,0.39048206,981.3061926,Cu35 Cr30 Si15 Fe10 Zr10 
1177,0,10,0,0,0,25,0,0,0,0,0,20,30,15,0,0,1000,620.0943196,False,26.50538363,BCC_B2,0.712707497,1244.078685,Ti30 Hf25 Ta20 V15 Co10 
1178,20,10,0,25,10,0,0,0,0,0,0,0,35,0,0,0,1000,233.7025748,False,3.830953838,BCC_B2#2,0.505888465,898.8603928,Ti35 Cu25 Al20 Co10 Fe10 
1179,0,0,0,35,0,10,0,0,0,35,10,10,0,0,0,0,1000,138.9286731,False,6.349815271,FCC_L12,0.301114772,929.4620947,Cu35 Ni35 Hf10 Si10 Ta10 
1181,0,45,10,0,0,10,0,0,0,0,15,0,0,20,0,0,1000,438.6590617,False,34.53741678,CR3SI_A15,0.336487361,887.0488947,Co45 V20 Si15 Cr10 Hf10 
1184,15,0,45,0,0,0,0,0,0,0,0,15,25,0,0,0,1000,24.65607756,False,4.769548918,BCC_B2,0.792968475,1640.244019,Cr45 Ti25 Al15 Ta15 
1185,0,0,0,0,35,0,40,0,0,5,10,0,0,10,0,0,1000,480.1103657,False,40.86433849,BCC_B2#2,0.879103991,1115.128029,Mn40 Fe35 Si10 V10 Ni5 
1186,35,0,5,0,0,0,0,0,0,10,0,0,10,0,0,40,1000,657.0432655,False,0.598057983,AL3ZR5,0.433206631,991.6989068,Zr40 Al35 Ni10 Ti10 Cr5 
1187,0,15,25,0,0,0,10,0,0,0,0,10,40,0,0,0,1000,455.3094655,False,11.6688951,C14_LAVES,0.612980798,974.8012113,Ti40 Cr25 Co15 Mn10 Ta10 
1190,0,0,0,0,0,0,35,0,0,0,0,20,25,20,0,0,1000,141.4964199,False,32.00416157,BCC_B2,0.763587198,1175.777299,Mn35 Ti25 Ta20 V20 
1195,0,0,0,0,0,0,10,0,30,0,0,35,0,25,0,0,1000,770.5843033,False,57.20379888,BCC_B2,1.0,1514.135587,Ta35 Nb30 V25 Mn10 
1196,15,0,0,0,0,0,15,0,0,35,0,10,0,0,0,25,1000,393.6106372,False,1.513243391,HEUSLER_L21,0.506577009,855.3787075,Ni35 Zr25 Al15 Mn15 Ta10 
1198,0,40,0,0,0,0,25,0,0,15,0,0,0,20,0,0,1000,38.15783145,False,26.70849208,FCC_L12,1.0,1188.901232,Co40 Mn25 V20 Ni15 
1199,0,0,25,0,45,0,0,0,0,20,0,0,0,10,0,0,1000,130.8393144,False,3.626951684,SIGMA,0.628533699,1422.080511,Fe45 Cr25 Ni20 V10 
1202,0,0,0,25,0,0,0,0,0,0,15,25,0,0,0,35,1000,1456.630162,False,18.83091795,C16_THETA,0.45,994.7178876,Zr35 Cu25 Ta25 Si15 
1203,15,0,0,0,10,0,45,0,0,0,0,30,0,0,0,0,1000,369.5398581,False,3.666758648,C14_LAVES,0.882389204,1104.870917,Mn45 Ta30 Al15 Fe10 
1205,0,0,0,25,0,25,30,0,10,0,0,0,0,0,0,10,1000,725.9797107,False,16.49551791,C14_LAVES,0.462797344,752.4260052,Mn30 Cu25 Hf25 Nb10 Zr10 
1207,0,0,0,35,0,0,0,0,10,0,45,10,0,0,0,0,1000,980.8919236,False,19.38883696,CRSI2_C40,0.600035482,853.1986792,Si45 Cu35 Nb10 Ta10 
1214,0,0,0,0,10,0,0,0,40,0,5,15,0,0,0,30,1000,734.6455568,False,41.00703724,BCC_B2,0.496682402,1219.4754,Nb40 Zr30 Ta15 Fe10 Si5 
1216,0,0,0,0,0,30,0,0,45,0,0,0,0,15,0,10,1000,216.1695375,False,48.77874358,BCC_B2,1.0,1730.91252,Nb45 Hf30 V15 Zr10 
1217,5,40,25,0,10,0,0,0,0,0,0,0,0,20,0,0,1000,77.15362794,False,15.86652532,BCC_B2,0.779528237,1283.390901,Co40 Cr25 V20 Fe10 Al5 
1218,25,0,0,0,0,0,0,0,0,35,0,0,20,0,0,20,1000,254.4088422,False,0.915967973,C14_LAVES,0.530218667,1129.925028,Ni35 Al25 Ti20 Zr20 
1219,0,0,15,0,45,0,0,0,10,0,0,10,20,0,0,0,1000,265.5106716,False,8.803970613,C14_LAVES,1.0,1404.203251,Fe45 Ti20 Cr15 Nb10 Ta10 
1221,0,0,0,15,0,0,45,0,25,0,0,15,0,0,0,0,1000,491.1869268,False,38.8431479,C14_LAVES,0.709847566,930.5610411,Mn45 Nb25 Cu15 Ta15 
1222,0,0,15,0,0,10,0,0,0,0,40,35,0,0,0,0,1000,464.913883,False,10.01077981,TA5SI3_D8L,0.475399462,1749.106372,Si40 Ta35 Cr15 Hf10 
1224,0,0,40,0,15,0,0,0,0,5,0,0,25,0,0,15,1000,618.5528688,False,7.488543889,C14_LAVES,0.973919329,1137.968376,Cr40 Ti25 Fe15 Zr15 Ni5 
1225,0,0,0,10,0,0,0,0,45,10,0,0,35,0,0,0,1000,513.2639949,False,22.89567052,BCC_B2,0.565581942,1227.780644,Nb45 Ti35 Cu10 Ni10 
1226,0,10,0,35,5,0,30,0,0,20,0,0,0,0,0,0,1000,55.91747639,False,12.19868118,FCC_L12,1.0,1051.924964,Cu35 Mn30 Ni20 Co10 Fe5 
1227,0,40,0,15,30,0,0,0,5,0,0,0,0,0,0,10,1000,328.4677982,False,19.54250902,C15_LAVES,0.477619103,1085.032644,Co40 Fe30 Cu15 Zr10 Nb5 
1228,0,35,0,15,0,25,0,0,0,0,25,0,0,0,0,0,1000,151.2914036,False,29.17059619,C14_LAVES,0.749969674,882.6905966,Co35 Hf25 Si25 Cu15 
1229,0,0,0,0,0,0,10,0,10,0,0,0,35,45,0,0,1000,49.96545167,False,49.30061916,BCC_B2,1.0,1546.424102,V45 Ti35 Mn10 Nb10 
1231,0,0,0,0,35,0,20,0,0,0,15,25,5,0,0,0,1000,447.6857327,False,23.28847908,C14_LAVES,0.766940079,927.1696369,Fe35 Ta25 Mn20 Si15 Ti5 
1233,0,0,0,0,15,25,0,0,15,0,0,0,0,0,0,45,1000,398.3767758,False,34.64705688,BCC_B2#2,0.707543421,1129.076658,Zr45 Hf25 Fe15 Nb15 
1235,0,20,0,0,0,20,0,0,0,35,20,5,0,0,0,0,1000,91.7682449,False,7.630747901,G_PHASE,0.753831912,1032.63383,Ni35 Co20 Hf20 Si20 Ta5 
1236,0,35,0,5,0,15,0,0,10,0,0,0,0,35,0,0,1000,418.4699475,False,30.62459576,BCC_B2,0.48311382,1044.543737,Co35 V35 Hf15 Nb10 Cu5 
1237,0,0,0,0,30,35,0,0,0,25,0,10,0,0,0,0,1000,386.2934977,False,6.281610937,C15_LAVES,0.547110079,1266.063317,Hf35 Fe30 Ni25 Ta10 
1239,0,45,0,0,20,0,0,0,15,0,0,20,0,0,0,0,1000,132.1634951,False,27.59299608,C14_LAVES,0.895451175,1505.539987,Co45 Fe20 Ta20 Nb15 
1241,0,10,15,0,25,0,30,0,0,0,0,20,0,0,0,0,1000,309.933213,False,9.408988638,C14_LAVES,0.589931205,1229.077996,Mn30 Fe25 Ta20 Cr15 Co10 
1242,0,0,25,35,0,0,15,0,5,0,0,0,0,0,0,20,1000,812.5252532,False,12.47979117,CU51ZR14,0.446073719,762.4257853,Cu35 Cr25 Zr20 Mn15 Nb5 
1243,0,35,0,20,0,0,0,0,25,0,0,0,10,10,0,0,1000,211.9402524,False,67.9413751,MU_PHASE,0.407930238,1024.458459,Co35 Nb25 Cu20 Ti10 V10 
1244,0,0,30,0,10,0,0,0,45,0,0,10,5,0,0,0,1000,155.0989748,False,19.40339102,C14_LAVES,0.550238123,1613.464854,Nb45 Cr30 Fe10 Ta10 Ti5 
1245,0,0,0,20,0,10,0,0,0,0,0,0,40,5,0,25,1000,288.788693,False,34.32643934,BCC_B2,0.521229936,909.122987,Ti40 Zr25 Cu20 Hf10 V5 
1246,30,0,0,0,30,0,0,0,30,10,0,0,0,0,0,0,1000,295.5466245,False,0.784995173,C14_LAVES,0.888780672,1450.90299,Al30 Fe30 Nb30 Ni10 
1248,0,0,0,0,0,0,40,0,0,0,0,40,10,0,0,10,1000,278.4116026,False,21.15039696,C14_LAVES,0.575704184,1312.023301,Mn40 Ta40 Ti10 Zr10 
1249,0,20,35,0,0,0,0,0,0,0,0,0,35,10,0,0,1000,373.6095199,False,23.80742193,C15_LAVES,0.790881195,1049.037354,Cr35 Ti35 Co20 V10 
1250,0,0,25,0,0,0,20,0,30,0,0,0,25,0,0,0,1000,110.7581724,False,36.68745432,C14_LAVES,0.625365329,1410.511085,Nb30 Cr25 Ti25 Mn20 
1251,0,0,0,0,20,0,0,0,10,0,0,0,30,10,0,30,1000,164.1401414,False,50.54185429,BCC_B2,0.476349321,978.5569073,Ti30 Zr30 Fe20 Nb10 V10 
1252,0,20,25,0,10,0,40,0,0,0,0,0,0,0,0,5,1000,218.4745872,False,6.486996132,BCC_B2,0.860726769,1091.722605,Mn40 Cr25 Co20 Fe10 Zr5 
1255,35,0,0,0,20,0,0,0,10,0,0,30,0,5,0,0,1000,552.0648145,False,3.251186131,MU_PHASE,0.692621781,1378.551292,Al35 Ta30 Fe20 Nb10 V5 
1256,20,0,0,25,0,0,0,0,0,0,45,0,0,0,0,10,1000,841.1870318,False,1.257847287,ALCU_EPS,0.449999552,701.4013105,Si45 Cu25 Al20 Zr10 