,Al,Co,Cr,Cu,Fe,Hf,Mn,Mo,Nb,Ni,Si,Ta,Ti,V,W,Zr,T (C),freeze_range,literature,mass_change,max_phase,max_phase_fraction,solidus,composition
1798,0,20,0,0,0,20,45,0,0,15,0,0,0,0,0,0,1000,338.5720096,False,12.36608339,FCC_L12,0.510794101,1041.175062,Mn45 Co20 Hf20 Ni15 
1801,20,0,0,30,0,0,0,0,30,0,0,20,0,0,0,0,1000,764.4292975,False,7.113970227,SIGMA,0.618621384,1075.084276,Cu30 Nb30 Al20 Ta20 
1803,30,0,0,0,40,0,0,0,0,0,0,10,0,0,0,20,1000,352.3612776,False,1.690414851,C14_LAVES,0.855082316,1109.154667,Fe40 Al30 Zr20 Ta10 
1811,15,0,15,0,0,0,35,0,0,5,0,0,30,0,0,0,1000,413.6958543,False,1.820058462,C14_LAVES,0.598571025,947.2614726,Mn35 Ti30 Al15 Cr15 Ni5 
1812,45,0,0,10,0,0,0,0,0,5,15,0,0,0,0,25,1000,709.8682507,False,0.358059259,BCC_B2#2,0.319263449,883.3639488,Al45 Zr25 Si15 Cu10 Ni5 
1816,0,0,30,15,0,0,0,0,0,0,10,0,0,0,0,45,1000,1002.772295,False,10.75878784,C15_LAVES,0.447754316,888.9104566,Zr45 Cr30 Cu15 Si10 
1817,0,0,25,0,0,0,15,0,0,0,0,15,20,0,0,25,1000,240.0300768,False,15.09460697,C14_LAVES,0.721631449,1257.834477,Cr25 Zr25 Ti20 Mn15 Ta15 
1818,25,0,15,0,0,35,0,0,5,20,0,0,0,0,0,0,1000,857.7263888,False,0.392518059,C14_LAVES#2,0.496767883,816.7391852,Hf35 Al25 Ni20 Cr15 Nb5 
1819,25,0,0,0,30,20,5,0,20,0,0,0,0,0,0,0,1000,282.5752295,False,4.507966475,C14_LAVES,0.955140272,1349.472469,Fe30 Al25 Hf20 Nb20 Mn5 
1820,0,0,0,20,30,15,0,0,10,0,0,0,25,0,0,0,1000,506.2097561,False,19.8695143,BCC_B2#2,0.476763053,889.2753986,Fe30 Ti25 Cu20 Hf15 Nb10 
1822,25,0,10,0,0,0,5,0,0,0,0,0,25,0,0,35,1000,447.4325456,False,4.835944747,BCC_B2#2,0.397569086,1117.757133,Zr35 Al25 Ti25 Cr10 Mn5 
1824,0,5,0,0,0,0,35,0,0,10,40,0,10,0,0,0,1000,1928.433447,False,12.49723257,M5SI3_D88,0.474451242,1071.566553,Si40 Mn35 Ni10 Ti10 Co5 
1827,0,0,30,20,0,0,0,0,20,10,0,0,0,0,0,20,1000,491.2935773,False,8.462347047,C15_LAVES,0.465654226,1082.974034,Cr30 Cu20 Nb20 Zr20 Ni10 
1829,35,35,0,0,0,0,0,0,0,0,20,0,0,10,0,0,1000,205.9208131,False,2.870002643,BCC_B2#2,0.965167413,1439.631644,Al35 Co35 Si20 V10 
1830,0,0,30,0,10,0,25,0,0,0,0,0,0,35,0,0,1000,82.03001495,False,25.1994223,BCC_B2,1.0,1587.770414,V35 Cr30 Mn25 Fe10 
1831,20,25,0,0,0,0,0,0,0,25,30,0,0,0,0,0,1000,372.5727329,False,0.375181488,BCC_B2#2,0.7326468,1137.521804,Si30 Co25 Ni25 Al20 
1832,0,20,10,0,0,0,0,0,0,0,0,45,0,0,0,25,1000,288.2082265,False,19.32809882,C16_THETA,0.879322816,1375.335876,Ta45 Zr25 Co20 Cr10 
1833,0,0,0,0,0,0,0,0,10,25,10,10,45,0,0,0,1000,902.2323958,False,8.486170513,BCC_B2#2,0.71984786,927.8591808,Ti45 Ni25 Nb10 Si10 Ta10 
1834,0,0,0,15,0,0,0,0,0,0,5,10,45,25,0,0,1000,547.4923531,False,36.53659784,BCC_B2,0.587362134,957.4517923,Ti45 V25 Cu15 Ta10 Si5 
1836,0,0,0,0,0,25,0,0,0,0,0,40,25,10,0,0,1000,361.6023716,False,26.01241436,BCC_B2#2,1.0,1878.82612,Ta40 Hf25 Ti25 V10 
1837,0,15,25,0,45,0,0,0,0,0,0,15,0,0,0,0,1000,212.0120489,False,4.989218899,C14_LAVES,0.512473501,1368.870037,Fe45 Cr25 Co15 Ta15 
1839,0,15,0,0,35,0,0,0,0,0,30,10,0,10,0,0,1000,240.6438379,False,31.24879483,C14_LAVES,0.299409894,940.1637803,Fe35 Si30 Co15 Ta10 V10 
1842,0,20,0,0,0,25,0,0,0,0,0,40,15,0,0,0,1000,1115.26219,False,18.82200086,BCC_B2,0.524393599,1281.024942,Ta40 Hf25 Co20 Ti15 
1843,0,0,0,0,0,10,0,0,35,25,0,0,30,0,0,0,1000,701.1184768,False,14.65939799,BCC_B2,0.419902498,859.3739289,Nb35 Ti30 Ni25 Hf10 
1845,0,30,0,0,10,0,35,0,0,0,0,0,25,0,0,0,1000,104.0352221,False,38.2352808,FCC_L12#2,0.546727808,1035.517041,Mn35 Co30 Ti25 Fe10 
1846,0,0,0,0,0,0,15,0,0,30,0,0,15,20,0,20,1000,310.6730034,False,20.1358628,BCC_B2#2,0.642971907,1184.764216,Ni30 V20 Zr20 Mn15 Ti15 
1847,0,15,35,35,0,0,0,0,0,0,0,0,15,0,0,0,1000,347.0446311,False,7.424752768,C15_LAVES,0.437358084,1040.551384,Cr35 Cu35 Co15 Ti15 
1848,10,0,15,0,40,0,5,0,0,0,30,0,0,0,0,0,1000,26.48022342,False,3.787579559,BCC_B2#2,0.864929461,1181.176731,Fe40 Si30 Cr15 Al10 Mn5 
1850,0,0,0,0,40,0,30,0,10,0,0,20,0,0,0,0,1000,412.2858107,False,18.21199404,C14_LAVES,0.893327377,1223.791731,Fe40 Mn30 Ta20 Nb10 
1851,0,0,0,0,0,10,0,0,45,0,15,10,0,20,0,0,1000,200.3650761,False,46.12944861,BCC_B2,0.602730729,1604.9901,Nb45 V20 Si15 Hf10 Ta10 
1852,0,0,15,25,25,0,0,0,0,35,0,0,0,0,0,0,1000,130.5943896,False,1.421414295,FCC_L12#2,0.907471258,1151.73871,Ni35 Cu25 Fe25 Cr15 
1853,35,35,0,0,15,0,0,0,0,0,10,0,0,0,0,5,1000,381.6991739,False,0.767355967,BCC_B2#2,0.857639738,1178.49593,Al35 Co35 Fe15 Si10 Zr5 
1855,0,15,0,0,0,0,20,0,20,0,0,0,0,30,0,15,1000,288.1558918,False,75.79729907,BCC_B2,0.571256285,1028.614824,V30 Mn20 Nb20 Co15 Zr15 
1856,20,15,0,45,5,0,0,0,15,0,0,0,0,0,0,0,1000,802.3387455,False,4.330143557,C14_LAVES,0.447419328,1038.454165,Cu45 Al20 Co15 Nb15 Fe5 
1857,5,0,25,0,25,0,0,0,10,0,0,0,35,0,0,0,1000,393.7148658,False,10.5883849,C14_LAVES,0.747360973,1190.65352,Ti35 Cr25 Fe25 Nb10 Al5 
1858,20,0,25,0,0,25,0,0,0,0,0,0,0,0,0,30,1000,145.2926098,False,2.674159826,C14_LAVES,0.540158783,1489.643462,Zr30 Cr25 Hf25 Al20 
1860,30,0,0,0,0,0,40,0,0,0,0,10,5,15,0,0,1000,179.7506745,False,6.015343571,BCC_B2,0.827557172,1124.010715,Mn40 Al30 V15 Ta10 Ti5 
1862,0,0,0,0,0,0,0,0,25,15,0,0,40,20,0,0,1000,414.970725,False,28.68203442,BCC_B2,0.658893973,1113.646033,Ti40 Nb25 V20 Ni15 
1863,15,0,0,40,10,0,0,0,0,0,0,10,0,25,0,0,1000,426.278426,False,7.266168222,BCC_B2,0.495134603,1050.438075,Cu40 V25 Al15 Fe10 Ta10 
1864,0,35,15,0,0,0,0,0,5,30,0,0,0,15,0,0,1000,118.1735047,False,6.12980796,FCC_L12,0.984829518,1209.923764,Co35 Ni30 Cr15 V15 Nb5 
1865,0,0,0,0,0,15,0,0,25,0,25,10,25,0,0,0,1000,420.1587939,False,37.20103407,M3SI,0.850789045,1503.907772,Nb25 Si25 Ti25 Hf15 Ta10 
1866,0,0,25,0,0,0,15,0,20,5,0,0,0,0,0,35,1000,608.8486178,False,13.01067521,C14_LAVES,0.378107542,929.777914,Zr35 Cr25 Nb20 Mn15 Ni5 
1867,0,0,0,20,5,25,0,0,0,0,0,35,0,15,0,0,1000,1191.476733,False,25.51933412,BCC_B2,0.414464953,974.904247,Ta35 Hf25 Cu20 V15 Fe5 
1869,0,0,0,0,0,0,0,0,10,0,30,0,0,45,0,15,1000,152.0883807,False,40.92748222,CR3SI_A15,0.717363523,1824.172876,V45 Si30 Zr15 Nb10 
1870,0,0,45,0,25,20,0,0,0,0,0,0,10,0,0,0,1000,215.9678996,False,4.81435126,C14_LAVES,0.916465301,1525.679862,Cr45 Fe25 Hf20 Ti10 
1872,0,0,0,20,0,0,20,0,15,0,0,0,45,0,0,0,1000,587.7246,False,43.51643866,BCC_B2,0.42010382,851.5080617,Ti45 Cu20 Mn20 Nb15 
1873,0,0,0,0,15,0,0,0,0,45,0,10,0,20,0,10,1000,506.4331701,False,10.14277511,SIGMA,0.346012837,901.9880554,Ni45 V20 Fe15 Ta10 Zr10 
1874,0,0,0,25,0,0,20,0,45,0,0,0,10,0,0,0,1000,872.7649575,False,36.23211878,BCC_B2,0.403883621,770.2535134,Nb45 Cu25 Mn20 Ti10 
1876,0,0,0,10,0,0,15,0,40,0,0,35,0,0,0,0,1000,1250.863624,False,35.52772503,BCC_B2,0.677478128,930.4366649,Nb40 Ta35 Mn15 Cu10 
1880,30,0,0,20,0,0,0,0,15,0,25,0,0,0,0,10,1000,1027.602783,False,4.951784766,CRSI2_C40,0.259266672,877.427043,Al30 Si25 Cu20 Nb15 Zr10 
1881,0,0,0,35,30,0,0,0,5,15,0,0,0,15,0,0,1000,142.5294523,False,12.58476147,FCC_L12,0.358083153,1113.713785,Cu35 Fe30 Ni15 V15 Nb5 
1882,0,30,25,0,0,10,0,0,0,0,0,0,35,0,0,0,1000,469.1181086,False,11.28956515,C15_LAVES,0.508625462,1000.110555,Ti35 Co30 Cr25 Hf10 
1883,0,0,0,0,0,10,0,0,0,40,10,25,0,0,0,15,1000,548.233912,False,5.68115104,C14_LAVES,0.481838292,760.6345761,Ni40 Ta25 Zr15 Hf10 Si10 
1884,15,0,35,30,15,5,0,0,0,0,0,0,0,0,0,0,1000,613.3221575,False,1.2907259,BCC_B2,0.458833243,869.8664439,Cr35 Cu30 Al15 Fe15 Hf5 
1885,0,0,30,0,0,35,0,0,0,0,0,0,10,0,0,25,1000,51.76850695,False,11.95648202,BCC_B2#2,0.608528269,1389.580757,Hf35 Cr30 Zr25 Ti10 
1887,0,0,0,15,40,0,35,0,0,0,10,0,0,0,0,0,1000,292.208228,False,70.06035267,FCC_L12#2,0.842793627,880.2329316,Fe40 Mn35 Cu15 Si10 
1888,0,0,0,0,0,40,5,0,15,0,25,0,0,15,0,0,1000,752.159392,False,41.65781216,C16_THETA,0.734552328,1332.120471,Hf40 Si25 Nb15 V15 Mn5 
1891,10,0,5,0,25,0,0,0,0,0,25,0,0,35,0,0,1000,364.7748651,False,14.10208154,BCC_B2#2,0.479594702,1230.811522,V35 Fe25 Si25 Al10 Cr5 
1892,0,0,15,0,0,0,0,0,0,15,0,25,0,25,0,20,1000,615.1625071,False,8.526259937,C15_LAVES,0.639735924,1070.899057,Ta25 V25 Zr20 Cr15 Ni15 
1894,0,0,0,0,0,35,20,0,0,0,5,30,0,10,0,0,1000,763.7897302,False,26.69486685,BCC_B2,0.402950217,1245.295211,Hf35 Ta30 Mn20 V10 Si5 
1896,0,20,0,0,0,35,0,0,10,0,0,20,0,15,0,0,1000,892.0001893,False,24.74363973,BCC_B2,0.438880159,1292.333733,Hf35 Co20 Ta20 V15 Nb10 
1898,20,0,15,20,0,0,0,0,45,0,0,0,0,0,0,0,1000,631.6400382,False,4.567925081,SIGMA,0.631277776,1055.418901,Nb45 Al20 Cu20 Cr15 
1899,0,5,35,0,0,0,10,0,25,0,0,0,0,25,0,0,1000,193.3115943,False,49.5805424,BCC_B2#2,0.792312162,1340.490105,Cr35 Nb25 V25 Mn10 Co5 
1900,0,0,0,10,0,10,0,0,0,0,25,0,20,0,0,35,1000,1262.320183,False,25.53917246,C16_THETA,0.431254725,767.1184482,Zr35 Si25 Ti20 Cu10 Hf10 
1901,0,0,15,0,0,40,20,0,5,0,0,0,0,20,0,0,1000,255.5019951,False,21.60581472,BCC_B2,0.388198846,1209.732706,Hf40 Mn20 V20 Cr15 Nb5 
1904,40,0,0,0,0,15,0,0,0,20,0,25,0,0,0,0,1000,872.8164983,False,0.663974957,C14_LAVES,0.820349892,1145.294902,Al40 Ta25 Ni20 Hf15 
1907,0,0,30,35,0,0,0,0,0,0,5,15,0,0,0,15,1000,723.1915213,False,9.598827688,C15_LAVES,0.451493592,1002.103124,Cu35 Cr30 Ta15 Zr15 Si5 
1908,45,10,0,15,0,0,0,0,0,0,0,15,15,0,0,0,1000,683.3208969,False,1.933588071,ALTI_L10,0.359014554,922.3228769,Al45 Cu15 Ta15 Ti15 Co10 
1909,0,35,10,0,40,0,0,0,0,0,0,0,0,15,0,0,1000,60.71746913,False,46.62020662,FCC_L12,0.860237268,1276.545742,Fe40 Co35 V15 Cr10 
1911,5,0,0,15,0,0,0,0,0,0,0,25,10,0,0,45,1000,1010.312711,False,12.19325248,MOSI2_C11B,0.431775865,861.6745258,Zr45 Ta25 Cu15 Ti10 Al5 
1912,30,5,0,0,0,0,0,0,0,0,30,10,0,0,0,25,1000,958.20801,False,1.614914327,MSI_B27,0.462193595,1058.803233,Al30 Si30 Zr25 Ta10 Co5 
1913,45,0,15,10,10,0,0,0,0,20,0,0,0,0,0,0,1000,136.2432953,False,0.10754655,BCC_B2#2,0.763759863,1206.407097,Al45 Ni20 Cr15 Cu10 Fe10 
1914,0,0,0,35,0,5,15,0,0,0,0,25,20,0,0,0,1000,963.6662312,False,17.92140679,CUTI_B11,0.31266951,810.2868316,Cu35 Ta25 Ti20 Mn15 Hf5 
1917,10,20,0,0,0,25,0,0,0,0,0,0,0,45,0,0,1000,503.1708348,False,16.74230087,BCC_B2,0.548294048,1262.829165,V45 Hf25 Co20 Al10 
1919,0,0,0,0,0,0,0,0,25,0,15,20,15,0,0,25,1000,321.8667776,False,52.25997237,M3SI,0.599991322,1670.952082,Nb25 Zr25 Ta20 Si15 Ti15 
1920,15,0,35,30,0,0,5,0,0,0,0,0,0,15,0,0,1000,626.9758608,False,9.687215049,BCC_B2,0.609666647,1011.525918,Cr35 Cu30 Al15 V15 Mn5 
1925,0,0,0,0,0,20,0,0,0,20,0,35,25,0,0,0,1000,743.1578062,False,10.36384261,C16_THETA,0.583593675,994.239822,Ta35 Ti25 Hf20 Ni20 
1926,20,0,0,45,20,0,15,0,0,0,0,0,0,0,0,0,1000,516.2642213,False,2.347884862,BCC_B2,0.593586223,968.719636,Cu45 Al20 Fe20 Mn15 
1929,35,0,0,15,0,10,0,0,0,0,0,0,40,0,0,0,1000,640.3924093,False,1.755358837,ALTI3_D019,0.334878141,600.0,Ti40 Al35 Cu15 Hf10 
1930,0,0,0,0,0,30,0,0,30,15,0,0,0,10,0,15,1000,1074.117977,False,23.33559452,C16_THETA,0.449175644,794.5854438,Hf30 Nb30 Ni15 Zr15 V10 
1933,0,0,35,20,30,0,0,0,0,15,0,0,0,0,0,0,1000,132.4516815,False,1.123208819,FCC_L12#2,0.525885346,1107.445837,Cr35 Fe30 Cu20 Ni15 
1935,0,0,0,0,35,20,0,0,0,30,0,0,0,15,0,0,1000,184.5495068,False,13.81814214,C15_LAVES,0.599888932,1218.381293,Fe35 Ni30 Hf20 V15 
1939,0,0,35,0,20,0,0,0,30,0,15,0,0,0,0,0,1000,592.0143875,False,18.38409129,C14_LAVES,0.899558631,1259.361056,Cr35 Nb30 Fe20 Si15 
1941,45,0,0,0,0,0,25,0,15,10,0,0,5,0,0,0,1000,68.46958322,False,1.499078181,BCC_B2,1.0,1109.079252,Al45 Mn25 Nb15 Ni10 Ti5 
1942,0,30,30,0,25,0,0,0,0,10,0,0,0,0,0,5,1000,47.93965073,False,1.710836172,FCC_L12,0.82525353,1276.345015,Co30 Cr30 Fe25 Ni10 Zr5 
1943,0,0,0,0,10,15,0,0,0,0,35,0,0,0,0,40,1000,852.7802747,False,22.08508939,M3SI2_D5A,0.813445985,1412.113132,Zr40 Si35 Hf15 Fe10 
1947,0,10,0,25,0,20,0,0,40,5,0,0,0,0,0,0,1000,716.3434895,False,17.51413569,BCC_B2,0.40462313,1084.170157,Nb40 Cu25 Hf20 Co10 Ni5 
1949,0,0,25,20,0,15,0,0,0,0,15,25,0,0,0,0,1000,741.9487342,False,7.462542026,C14_LAVES#2,0.456537845,1038.130682,Cr25 Ta25 Cu20 Hf15 Si15 
1950,0,0,40,20,0,15,0,0,0,0,0,0,15,0,0,10,1000,634.2179833,False,9.466497147,C15_LAVES,0.602216685,859.7563873,Cr40 Cu20 Hf15 Ti15 Zr10 
1951,0,0,30,20,0,0,15,0,5,0,0,0,0,30,0,0,1000,620.9145369,False,23.25260826,BCC_B2,0.765273106,937.207685,Cr30 V30 Cu20 Mn15 Nb5 
1953,45,15,0,15,0,5,0,0,0,0,0,20,0,0,0,0,1000,923.4932356,False,1.121479503,C14_LAVES,0.643299715,901.2524025,Al45 Ta20 Co15 Cu15 Hf5 
1956,45,0,0,0,0,20,0,0,0,0,0,20,0,0,0,15,1000,158.5202203,False,2.070321881,ALZR,0.7,1448.470305,Al45 Hf20 Ta20 Zr15 
1957,0,0,0,10,20,0,0,0,0,0,0,0,45,10,0,15,1000,170.9936966,False,50.8870526,BCC_B2#2,0.512884734,852.6064183,Ti45 Fe20 Zr15 Cu10 V10 
1959,0,25,0,40,0,0,0,0,15,10,0,10,0,0,0,0,1000,586.7513639,False,13.30102785,MU_PHASE#2,0.413623513,1093.409616,Cu40 Co25 Nb15 Ni10 Ta10 
1961,25,5,0,0,0,0,0,0,0,20,20,30,0,0,0,0,1000,710.4263041,False,0.522754591,C14_LAVES,0.744895688,1059.717025,Ta30 Al25 Ni20 Si20 Co5 
1962,0,0,0,0,20,0,20,0,45,15,0,0,0,0,0,0,1000,146.2976742,False,15.8200489,C14_LAVES,1.0,1253.633623,Nb45 Fe20 Mn20 Ni15 
1964,0,10,0,10,0,35,45,0,0,0,0,0,0,0,0,0,1000,789.7879983,False,30.19619106,C14_LAVES,0.655128916,783.0831388,Mn45 Hf35 Co10 Cu10 
1965,0,0,20,0,25,0,35,0,0,20,0,0,0,0,0,0,1000,74.54656127,False,4.21157813,FCC_L12,0.849099059,1208.782212,Mn35 Fe25 Cr20 Ni20 
1966,35,10,0,0,0,0,25,0,0,0,0,0,0,20,0,10,1000,256.864798,False,5.9984446,BCC_B2,0.723129052,1190.630313,Al35 Mn25 V20 Co10 Zr10 
1967,0,0,10,0,0,0,0,0,0,0,10,0,45,35,0,0,1000,114.5617856,False,51.80902801,BCC_B2,0.776709348,1352.833309,Ti45 V35 Cr10 Si10 
1968,0,10,0,0,0,0,0,0,30,20,0,0,0,25,0,15,1000,515.6352925,False,29.32027529,BCC_B2,0.447597351,967.1843827,Nb30 V25 Ni20 Zr15 Co10 
1970,30,0,15,0,0,0,0,0,0,0,0,15,0,0,0,40,1000,363.0736219,False,1.376860125,C14_LAVES,0.480559646,1286.155065,Zr40 Al30 Cr15 Ta15 
1974,20,0,0,0,40,0,10,0,0,30,0,0,0,0,0,0,1000,122.7506153,False,0.326481553,BCC_B2#2,1.0,1431.012163,Fe40 Ni30 Al20 Mn10 
1975,0,30,0,0,10,5,0,0,0,0,0,0,10,0,0,45,1000,410.6112905,False,27.59649412,C16_THETA,0.349076126,823.2806319,Zr45 Co30 Fe10 Ti10 Hf5 
1976,0,30,0,0,5,0,0,0,0,0,20,0,0,10,0,35,1000,412.1402938,False,42.97222602,C15_LAVES,0.409551358,1282.487735,Zr35 Co30 Si20 V10 Fe5 
1980,0,25,0,0,0,5,0,0,0,40,10,0,0,20,0,0,1000,131.4846554,False,14.92235758,FCC_L12,0.707637163,852.8185033,Ni40 Co25 V20 Si10 Hf5 
1981,0,0,35,40,0,10,0,0,0,0,5,0,0,10,0,0,1000,598.4266031,False,15.05778989,BCC_B2,0.356794723,1040.873001,Cu40 Cr35 Hf10 V10 Si5 
1982,0,15,0,0,15,0,0,0,0,0,45,0,0,25,0,0,1000,136.4277505,False,64.6269653,FESI_B20,0.599999995,1365.34395,Si45 V25 Co15 Fe15 
1983,0,0,35,0,0,0,20,0,0,20,0,0,25,0,0,0,1000,492.8911965,False,3.633440004,BCC_B2,0.539891294,923.7363814,Cr35 Ti25 Mn20 Ni20 
1986,20,45,0,10,0,0,0,0,0,0,20,0,0,5,0,0,1000,532.4320062,False,4.763366041,BCC_B2#2,0.876815974,1072.594144,Co45 Al20 Si20 Cu10 V5 
1987,0,20,0,5,0,0,0,0,30,0,0,20,0,0,0,25,1000,898.1553058,False,37.18672945,C16_THETA,0.594543488,927.0337864,Nb30 Zr25 Co20 Ta20 Cu5 
1988,0,15,25,0,0,0,25,0,0,0,0,25,0,10,0,0,1000,242.9252763,False,19.11195545,C14_LAVES,0.71724227,1227.284586,Cr25 Mn25 Ta25 Co15 V10 
1991,15,0,0,35,35,0,0,0,0,0,0,0,0,0,0,15,1000,296.0943621,False,3.367345296,BCC_B2,0.414634133,923.064157,Cu35 Fe35 Al15 Zr15 
1996,0,40,0,10,0,20,0,0,0,0,0,0,20,0,0,10,1000,677.6656991,False,20.7048725,BCC_B2#2,0.799874784,850.0832953,Co40 Hf20 Ti20 Cu10 Zr10 
1997,0,40,0,0,0,0,0,0,0,30,0,0,10,20,0,0,1000,88.55026159,False,14.49823122,FCC_L12,1.0,1175.218188,Co40 Ni30 V20 Ti10 
1998,0,0,30,30,20,0,0,0,0,0,0,0,10,0,0,10,1000,359.5816859,False,7.732226273,C15_LAVES,0.530055911,944.0771583,Cr30 Cu30 Fe20 Ti10 Zr10 
2000,0,15,25,5,0,0,0,0,0,0,0,0,0,10,0,45,1000,558.5816273,False,20.62774429,C15_LAVES,0.625328696,903.0510059,Zr45 Cr25 Co15 V10 Cu5 
2001,30,0,0,10,45,0,0,0,0,0,0,0,15,0,0,0,1000,33.55129812,False,1.177975395,BCC_B2#2,0.766325328,1181.268263,Fe45 Al30 Ti15 Cu10 
2003,0,35,0,0,5,0,10,0,20,0,0,30,0,0,0,0,1000,284.782804,False,32.4778605,MU_PHASE,0.598578696,1262.528393,Co35 Ta30 Nb20 Mn10 Fe5 
2004,0,0,0,0,0,0,0,0,0,20,30,5,0,15,0,30,1000,946.9113134,False,14.24591757,ZR5SI4_TP36,0.387571653,915.7421829,Si30 Zr30 Ni20 V15 Ta5 
2005,10,35,35,0,0,0,0,0,0,0,0,0,5,15,0,0,1000,289.7247095,False,13.1176735,BCC_B2,0.640443056,1163.663268,Co35 Cr35 V15 Al10 Ti5 
2006,0,0,0,35,0,0,10,0,0,20,0,0,0,0,0,35,1000,697.9457395,False,7.841999317,BCC_B2#2,0.704289798,718.2669569,Cu35 Zr35 Ni20 Mn10 
2008,35,0,0,0,0,20,0,0,0,0,0,0,0,20,0,25,1000,4.075304818,False,3.417143148,BCC_B2#2,1.0,1421.190253,Al35 Zr25 Hf20 V20 
2010,0,0,25,0,0,0,0,0,0,25,0,5,15,30,0,0,1000,974.2755862,False,5.920123491,BCC_B2,0.530076474,600.0,V30 Cr25 Ni25 Ti15 Ta5 
2012,45,0,10,0,0,0,0,0,0,0,35,0,0,0,0,10,1000,696.0899081,False,0.493158085,AL3ZR_D023,0.398584667,600.0,Al45 Si35 Cr10 Zr10 
2013,0,0,35,0,0,0,5,0,20,0,0,0,25,15,0,0,1000,52.25634008,False,53.07527524,BCC_B2#2,1.0,1428.208324,Cr35 Ti25 Nb20 V15 Mn5 
2015,0,0,30,0,15,0,20,0,0,0,0,0,35,0,0,0,1000,8.146177294,False,12.1805005,C14_LAVES,1.0,1405.102109,Ti35 Cr30 Mn20 Fe15 
2016,0,20,0,0,0,40,25,0,0,0,0,0,15,0,0,0,1000,369.1337256,False,20.4581429,NITI2,0.573597241,1131.602818,Hf40 Mn25 Co20 Ti15 
2019,0,15,0,25,0,15,45,0,0,0,0,0,0,0,0,0,1000,520.2652439,False,30.18819132,FCC_L12,0.686476404,887.796737,Mn45 Cu25 Co15 Hf15 
2020,0,15,0,0,0,0,20,0,0,45,15,5,0,0,0,0,1000,359.1276509,False,5.770530336,MNNISI_T6,0.384469445,1019.973155,Ni45 Mn20 Co15 Si15 Ta5 
2021,25,0,0,25,0,0,20,0,0,0,0,0,5,0,0,25,1000,365.4043138,False,3.200040574,BCC_B2#2,0.499671248,669.3731164,Al25 Cu25 Zr25 Mn20 Ti5 
2022,30,15,20,0,0,0,0,0,0,0,0,0,0,0,0,35,1000,700.1923959,False,1.206015663,C14_LAVES,0.90689133,1004.386731,Zr35 Al30 Cr20 Co15 
2023,0,0,0,0,15,35,0,0,20,15,0,15,0,0,0,0,1000,666.2722762,False,12.18893492,C16_THETA,0.389093979,1045.471991,Hf35 Nb20 Fe15 Ni15 Ta15 
2026,30,10,0,0,25,0,0,0,10,0,0,0,25,0,0,0,1000,239.0596072,False,1.480935682,C14_LAVES,0.822210786,1118.47992,Al30 Fe25 Ti25 Co10 Nb10 
2028,15,5,0,0,0,25,0,0,0,0,0,45,10,0,0,0,1000,1169.772779,False,5.409597295,SIGMA,0.428718361,1165.259864,Ta45 Hf25 Al15 Ti10 Co5 
2030,0,30,15,0,0,20,0,0,0,0,30,0,0,0,0,5,1000,629.8226783,False,8.916322091,C14_LAVES,0.750006353,930.3931028,Co30 Si30 Hf20 Cr15 Zr5 
2032,30,15,0,0,0,0,10,0,0,0,15,0,30,0,0,0,1000,698.2592241,False,2.797828113,BCC_B2#2,0.556145752,1082.726793,Al30 Ti30 Co15 Si15 Mn10 
2033,0,20,0,30,0,0,0,0,25,0,0,0,0,0,0,25,1000,506.5615832,False,47.56776959,C16_THETA,0.599786757,1026.546528,Cu30 Nb25 Zr25 Co20 
2035,10,0,0,15,0,15,0,0,20,0,0,0,0,0,0,40,1000,719.3389172,False,18.57522286,MOSI2_C11B,0.437196707,971.7731526,Zr40 Nb20 Cu15 Hf15 Al10 
2037,0,25,0,0,0,40,10,0,0,0,0,15,0,10,0,0,1000,339.9235899,False,25.87020403,BCC_B2#2,0.377142206,1252.604648,Hf40 Co25 Ta15 Mn10 V10 
2045,0,30,0,0,10,10,0,0,0,0,40,0,0,0,0,10,1000,578.209813,False,18.67118868,C14_LAVES,0.571712282,1018.772423,Si40 Co30 Fe10 Hf10 Zr10 
2046,0,20,45,15,0,0,0,0,0,10,0,10,0,0,0,0,1000,276.8856539,False,2.738635585,BCC_B2,0.472637668,1091.003356,Cr45 Co20 Cu15 Ni10 Ta10 
2048,20,10,0,0,20,0,0,0,0,0,15,0,0,0,0,35,1000,662.9287131,False,1.472296467,C14_LAVES,0.878323209,1085.373656,Zr35 Al20 Fe20 Si15 Co10 
2050,0,0,30,0,10,0,0,0,0,10,10,0,0,0,0,40,1000,545.454563,False,4.411735643,C14_LAVES#2,0.783737401,1311.514356,Zr40 Cr30 Fe10 Ni10 Si10 
2051,0,35,0,0,0,20,0,0,0,0,15,0,30,0,0,0,1000,550.2724147,False,21.31252682,BCC_B2,0.490214026,1082.849456,Co35 Ti30 Hf20 Si15 
2052,0,0,15,40,0,0,0,0,0,15,0,0,0,0,0,30,1000,461.7975845,False,4.171751702,C14_LAVES,0.323990169,1080.923136,Cu40 Zr30 Cr15 Ni15 
2054,15,0,25,0,30,0,0,0,0,15,0,0,15,0,0,0,1000,139.0830985,False,0.474339433,BCC_B2#3,1.0,1238.74684,Fe30 Cr25 Al15 Ni15 Ti15 
2055,0,0,0,25,0,0,10,0,0,35,0,30,0,0,0,0,1000,467.3217906,False,8.656729776,MU_PHASE,0.529500725,926.935815,Ni35 Ta30 Cu25 Mn10 
2057,10,0,0,0,0,0,30,0,0,0,25,0,0,0,0,35,1000,887.0052337,False,10.72459601,ZR5SI4_TP36,0.323329082,1042.392326,Zr35 Mn30 Si25 Al10 
2058,0,15,0,10,0,0,0,0,0,10,0,30,35,0,0,0,1000,361.7125089,False,11.59276843,BCC_B2#2,0.570191409,967.9407128,Ti35 Ta30 Co15 Cu10 Ni10 
2059,30,0,0,0,30,0,0,0,0,10,0,25,5,0,0,0,1000,518.5361252,False,0.629083401,C14_LAVES#3,0.467252885,1229.522321,Al30 Fe30 Ta25 Ni10 Ti5 