,Al,Co,Cr,Cu,Fe,Hf,Mn,Mo,Nb,Ni,Si,Ta,Ti,V,W,Zr,T (C),freeze_range,literature,mass_change,max_phase,max_phase_fraction,solidus,composition
2800,35,0,10,25,0,0,30,0,0,0,0,0,0,0,0,0,1000,235.4475249,False,0.410796389,BCC_B2,0.658987018,919.7291336,Al35 Mn30 Cu25 Cr10 
2802,0,0,15,0,0,20,0,0,0,0,0,0,45,0,0,20,1000,174.6307614,False,20.9463861,BCC_B2#2,0.967660748,1307.521654,Ti45 Hf20 Zr20 Cr15 
2804,0,0,40,0,0,0,0,0,30,0,5,0,10,0,0,15,1000,376.1941396,False,24.83596815,C14_LAVES,0.633222251,1350.054385,Cr40 Nb30 Zr15 Ti10 Si5 
2806,10,0,0,0,0,25,0,0,0,0,0,5,20,40,0,0,1000,150.4771264,False,15.26217795,BCC_B2,1.0,1259.217654,V40 Hf25 Ti20 Al10 Ta5 
2807,35,0,15,0,0,10,15,0,25,0,0,0,0,0,0,0,1000,264.5292803,False,3.678158605,C14_LAVES,1.0,1526.562283,Al35 Nb25 Cr15 Mn15 Hf10 
2808,0,20,0,0,10,0,5,0,45,0,0,0,20,0,0,0,1000,247.0425058,False,41.72071654,C14_LAVES,0.402846994,1088.617708,Nb45 Co20 Ti20 Fe10 Mn5 
2809,0,0,30,0,0,35,0,0,0,0,25,0,0,10,0,0,1000,567.0224852,False,15.76933834,M3SI2_D5A,0.57311334,1573.432593,Hf35 Cr30 Si25 V10 
2813,0,0,0,15,0,0,30,0,45,0,0,0,10,0,0,0,1000,778.3521407,False,36.23211878,C14_LAVES,0.433375322,770.2535134,Nb45 Mn30 Cu15 Ti10 
2814,0,0,10,0,0,20,5,0,0,0,0,25,40,0,0,0,1000,365.0604483,False,21.17470704,BCC_B2#2,0.928001142,1432.952104,Ti40 Ta25 Hf20 Cr10 Mn5 
2818,0,0,0,25,0,20,0,0,0,0,10,0,30,15,0,0,1000,665.0849742,False,30.73244825,MOSI2_C11B,0.469221164,873.997643,Ti30 Cu25 Hf20 V15 Si10 
2819,0,0,0,0,0,0,0,0,40,0,0,20,10,30,0,0,1000,214.2728018,False,52.09407052,BCC_B2,1.0,1996.625708,Nb40 V30 Ta20 Ti10 
2820,0,5,0,25,35,0,0,0,0,20,0,0,0,0,0,15,1000,98.18168618,False,6.344850979,C15_LAVES,0.349437647,1079.225967,Fe35 Cu25 Ni20 Zr15 Co5 
2822,0,0,0,10,0,0,0,0,0,35,25,0,20,10,0,0,1000,863.0962546,False,14.30912302,C14_LAVES,0.452657041,1082.997355,Ni35 Si25 Ti20 Cu10 V10 
2823,0,0,5,0,30,25,0,0,0,15,0,0,0,0,0,25,1000,879.5379189,False,7.263784225,C15_LAVES,0.525983091,756.0932644,Fe30 Hf25 Zr25 Ni15 Cr5 
2826,0,15,0,0,0,0,15,0,15,0,0,0,15,40,0,0,1000,325.4437108,False,81.78200045,BCC_B2,0.808947794,1051.03148,V40 Co15 Mn15 Nb15 Ti15 
2828,0,0,30,0,0,15,0,0,0,10,15,30,0,0,0,0,1000,874.2609083,False,3.889006314,C14_LAVES#2,0.6520157,932.2867436,Cr30 Ta30 Hf15 Si15 Ni10 
2831,10,0,0,0,0,0,30,0,30,0,25,0,5,0,0,0,1000,765.3109772,False,18.69963453,TA5SI3_D8L,0.461494568,1007.157874,Mn30 Nb30 Si25 Al10 Ti5 
2834,0,0,0,15,0,0,0,0,0,25,0,0,35,0,0,25,1000,490.3057674,False,12.239352,BCC_B2#2,0.961501734,1248.272213,Ti35 Ni25 Zr25 Cu15 
2836,20,25,0,0,0,20,25,0,0,0,0,0,0,0,0,10,1000,561.1892876,False,4.279673472,C14_LAVES#2,0.603525617,1109.186855,Co25 Mn25 Al20 Hf20 Zr10 
2837,0,0,0,10,20,0,0,0,0,25,0,0,0,45,0,0,1000,152.9994693,False,17.42159796,SIGMA,0.889216571,1120.053986,V45 Ni25 Fe20 Cu10 
2838,0,0,10,0,25,0,25,0,0,0,25,0,0,15,0,0,1000,388.7678784,False,60.96705012,MN3SI,0.58588559,987.1973591,Fe25 Mn25 Si25 V15 Cr10 
2839,30,0,0,0,10,10,0,0,5,0,0,45,0,0,0,0,1000,752.6600306,False,1.647294693,SIGMA,0.662447749,1208.698968,Ta45 Al30 Fe10 Hf10 Nb5 
2841,0,0,40,0,0,35,0,0,0,0,10,0,15,0,0,0,1000,635.8039294,False,7.228477145,C14_LAVES,0.619920218,1055.33743,Cr40 Hf35 Ti15 Si10 
2843,0,35,15,0,0,0,0,0,0,0,0,0,40,10,0,0,1000,65.37316614,False,27.38686829,BCC_B2#2,0.640552776,1173.044616,Ti40 Co35 Cr15 V10 
2845,35,0,0,15,0,5,10,0,0,0,35,0,0,0,0,0,1000,707.976507,False,1.731640504,AL2MN2SI3,0.329794232,659.6106706,Al35 Si35 Cu15 Mn10 Hf5 
2846,0,0,0,0,0,25,15,0,0,0,10,0,0,20,0,30,1000,651.0588214,False,32.98896317,C16_THETA,0.299967806,1091.226132,Zr30 Hf25 V20 Mn15 Si10 
2848,0,0,0,0,0,15,20,0,15,0,10,40,0,0,0,0,1000,768.0225971,False,28.02438144,BCC_B2,0.397743719,1401.819893,Ta40 Mn20 Hf15 Nb15 Si10 
2849,30,15,0,25,0,0,15,0,15,0,0,0,0,0,0,0,1000,753.5988836,False,3.549992867,BCC_B2,0.490632105,935.8145523,Al30 Cu25 Co15 Mn15 Nb15 
2853,0,0,20,10,0,0,40,0,0,0,0,15,0,0,0,15,1000,857.3105429,False,11.3577789,C14_LAVES,0.749289454,750.2220128,Mn40 Cr20 Ta15 Zr15 Cu10 
2854,0,20,0,20,0,0,0,0,35,0,20,5,0,0,0,0,1000,1063.566355,False,34.2315057,TA5SI3_D8L,0.472844829,897.4993988,Nb35 Co20 Cu20 Si20 Ta5 
2856,40,0,0,5,35,0,10,0,0,0,0,10,0,0,0,0,1000,231.925871,False,1.803854889,BCC_B2#2,0.747807311,1278.847222,Al40 Fe35 Mn10 Ta10 Cu5 
2859,30,0,0,0,0,25,0,0,20,20,0,5,0,0,0,0,1000,861.4196191,False,1.632811886,C14_LAVES,0.457181931,805.494539,Al30 Hf25 Nb20 Ni20 Ta5 
2860,25,0,30,0,0,0,0,0,15,5,0,25,0,0,0,0,1000,92.71717501,False,3.277512521,C14_LAVES,0.745836235,1751.325101,Cr30 Al25 Ta25 Nb15 Ni5 
2861,0,0,0,0,40,10,0,0,0,0,20,25,0,0,0,5,1000,623.8566071,False,12.79192569,C14_LAVES,0.501778031,1285.482241,Fe40 Ta25 Si20 Hf10 Zr5 
2864,20,10,0,10,0,0,0,0,0,25,0,0,0,35,0,0,1000,356.9606468,False,0.8168013,BCC_B2#2,0.974718551,1009.616254,V35 Ni25 Al20 Co10 Cu10 
2867,15,0,15,25,0,0,0,0,45,0,0,0,0,0,0,0,1000,597.5563856,False,5.979748754,CR3SI_A15,0.50967472,1067.625019,Nb45 Cu25 Al15 Cr15 
2869,20,0,0,0,0,0,25,0,0,0,0,0,40,0,0,15,1000,44.37291832,False,7.058285107,BCC_B2,0.462018813,1178.011612,Ti40 Mn25 Al20 Zr15 
2871,5,0,0,0,30,15,0,0,0,0,0,0,25,25,0,0,1000,301.0204126,False,19.12446642,C15_LAVES,0.476331596,954.0126692,Fe30 Ti25 V25 Hf15 Al5 
2872,0,0,0,0,0,5,45,0,0,0,0,0,10,15,0,25,1000,266.4975468,False,45.66596717,C14_LAVES,0.676903843,1094.552795,Mn45 Zr25 V15 Ti10 Hf5 
2873,10,0,0,45,0,20,0,0,0,0,0,0,0,25,0,0,1000,1048.738873,False,15.30704863,CU8HF3,0.449178482,600.0,Cu45 V25 Hf20 Al10 
2874,0,0,0,25,35,10,0,0,15,0,0,0,0,0,0,15,1000,769.7911311,False,21.08891824,C15_LAVES,0.279385013,789.1437065,Fe35 Cu25 Nb15 Zr15 Hf10 
2875,0,45,0,0,0,0,30,0,0,0,0,0,10,15,0,0,1000,50.95653141,False,48.79290893,FCC_L12,0.934450388,1070.464423,Co45 Mn30 V15 Ti10 
2877,40,0,0,20,0,0,0,0,0,0,0,0,15,0,0,25,1000,467.8830595,False,2.787286116,BCC_B2#2,0.487555892,762.5886228,Al40 Zr25 Cu20 Ti15 
2878,0,20,10,0,25,0,0,0,45,0,0,0,0,0,0,0,1000,258.0026231,False,39.97674912,C14_LAVES,0.740845442,1361.778279,Nb45 Fe25 Co20 Cr10 
2883,5,0,0,0,0,10,0,0,45,0,0,0,10,30,0,0,1000,200.8324394,False,35.23519497,BCC_B2,1.0,1712.57737,Nb45 V30 Hf10 Ti10 Al5 
2884,0,15,0,0,20,0,0,0,5,0,0,0,15,45,0,0,1000,212.2476579,False,37.6957548,BCC_B2,0.753021223,1087.481497,V45 Fe20 Co15 Ti15 Nb5 
2885,25,5,20,0,0,0,0,0,20,0,0,0,0,0,0,30,1000,834.9364383,False,8.266422411,C14_LAVES,0.698444344,959.5745386,Zr30 Al25 Cr20 Nb20 Co5 
2886,0,0,0,0,0,0,0,0,20,0,40,0,0,10,0,30,1000,318.2162901,False,68.50173154,ZR5SI4_TP36,0.736767613,1834.592382,Si40 Zr30 Nb20 V10 
2887,0,0,0,40,0,5,0,0,0,35,0,10,10,0,0,0,1000,359.4525654,False,6.254473444,NI2TA_C11B,0.300017402,783.1738375,Cu40 Ni35 Ta10 Ti10 Hf5 
2892,0,0,20,0,0,0,0,0,0,0,20,15,0,45,0,0,1000,227.7479838,False,19.91064616,CR3SI_A15,0.798507275,1513.461216,V45 Cr20 Si20 Ta15 
2893,0,0,10,0,0,0,0,0,25,0,45,0,0,20,0,0,1000,212.1029792,False,69.17999906,M6SI5,0.942857143,1835.729529,Si45 Nb25 V20 Cr10 
2894,20,0,30,0,5,0,0,0,10,0,35,0,0,0,0,0,1000,1145.768348,False,1.187822948,M6SI5,0.691452683,816.8825141,Si35 Cr30 Al20 Nb10 Fe5 
2895,15,0,0,15,0,35,20,0,0,0,0,0,0,15,0,0,1000,629.3041551,False,9.553402078,C14_LAVES,0.400375021,658.5558145,Hf35 Mn20 Al15 Cu15 V15 
2898,0,0,0,0,0,0,25,0,15,15,0,0,0,25,0,20,1000,402.4001947,False,27.31922673,BCC_B2,0.480303819,988.677865,Mn25 V25 Zr20 Nb15 Ni15 
2899,0,15,20,25,0,0,0,0,0,0,0,15,25,0,0,0,1000,480.9970452,False,10.21160488,C15_LAVES,0.432779275,979.315992,Cu25 Ti25 Cr20 Co15 Ta15 
2901,0,15,0,0,5,35,0,0,35,0,0,0,10,0,0,0,1000,806.5694283,False,27.79410474,BCC_B2,0.504450809,1217.005209,Hf35 Nb35 Co15 Ti10 Fe5 
2902,0,15,15,0,35,25,0,0,0,0,0,0,10,0,0,0,1000,150.1635574,False,7.218616615,C14_LAVES,0.843385411,1440.955582,Fe35 Hf25 Co15 Cr15 Ti10 
2903,0,0,20,0,5,0,0,0,0,0,25,25,25,0,0,0,1000,403.2542708,False,8.177736986,C14_LAVES,0.466036563,1519.18657,Si25 Ta25 Ti25 Cr20 Fe5 
2905,0,0,25,0,0,0,0,0,0,15,30,0,0,30,0,0,1000,554.3631295,False,5.049628488,CR3SI_A15,0.532521242,1153.873163,Si30 V30 Cr25 Ni15 
2906,0,0,30,0,0,10,30,0,0,10,0,20,0,0,0,0,1000,571.8422349,False,4.23668088,C14_LAVES,0.898514262,1151.222074,Cr30 Mn30 Ta20 Hf10 Ni10 
2907,15,0,0,15,0,0,0,0,15,0,0,0,0,35,0,20,1000,833.1942126,False,30.38408561,BCC_B2,0.544784818,810.1019726,V35 Zr20 Al15 Cu15 Nb15 
2908,0,0,35,5,0,0,0,0,0,20,10,0,30,0,0,0,1000,523.1128913,False,3.223326424,C15_LAVES,0.562916397,1142.503586,Cr35 Ti30 Ni20 Si10 Cu5 
2910,30,30,0,0,0,0,0,0,25,0,0,0,0,15,0,0,1000,335.4529765,False,10.70256077,C14_LAVES,0.687406365,1406.133699,Al30 Co30 Nb25 V15 
2911,0,20,10,0,0,30,0,0,40,0,0,0,0,0,0,0,1000,783.5606272,False,28.75300783,BCC_B2,0.430181369,1292.401534,Nb40 Hf30 Co20 Cr10 
2912,0,0,20,25,0,0,0,0,0,30,0,25,0,0,0,0,1000,351.9445383,False,1.63733293,C14_LAVES,0.734990344,1087.340434,Ni30 Cu25 Ta25 Cr20 
2917,5,0,0,0,30,0,25,0,0,0,0,0,20,0,0,20,1000,242.8366909,False,19.95663172,C14_LAVES,1.0,1201.996905,Fe30 Mn25 Ti20 Zr20 Al5 
2918,0,10,0,30,0,0,0,0,0,0,35,25,0,0,0,0,1000,701.6561452,False,20.63556515,FCC_L12,0.32381249,821.1189598,Si35 Cu30 Ta25 Co10 
2920,0,0,20,0,20,10,0,0,35,0,0,15,0,0,0,0,1000,66.27541149,False,19.38349623,C14_LAVES,0.622586561,1615.628431,Nb35 Cr20 Fe20 Ta15 Hf10 
2921,0,0,10,0,5,0,0,0,0,30,0,0,10,45,0,0,1000,353.1998154,False,10.66558741,BCC_B2,0.606630827,1086.543185,V45 Ni30 Cr10 Ti10 Fe5 
2923,0,0,0,20,30,0,0,0,40,10,0,0,0,0,0,0,1000,424.3226047,False,16.76879922,MU_PHASE,0.799053063,1092.760565,Nb40 Fe30 Cu20 Ni10 
2926,0,0,0,25,0,30,0,0,0,0,15,0,0,30,0,0,1000,779.9401787,False,35.55884482,CU10HF7,0.425,979.8880074,Hf30 V30 Cu25 Si15 
2927,0,0,40,10,0,0,0,0,0,0,30,0,0,15,0,5,1000,708.4200591,False,14.18025611,CR3SI_A15,0.463369257,948.7121525,Cr40 Si30 V15 Cu10 Zr5 
2928,0,0,0,25,25,0,30,0,0,0,15,5,0,0,0,0,1000,176.0343732,False,25.42398009,MN3SI,0.533746012,845.5827858,Mn30 Cu25 Fe25 Si15 Ta5 
2930,0,0,35,0,0,0,15,0,0,25,0,0,0,5,0,20,1000,703.7367863,False,7.510210132,C15_LAVES,0.353299679,933.8753701,Cr35 Ni25 Zr20 Mn15 V5 
2933,0,30,35,0,0,10,0,0,0,10,0,0,0,0,0,15,1000,126.7361401,False,4.779875992,C15_LAVES,0.466085619,1379.479996,Cr35 Co30 Zr15 Hf10 Ni10 
2934,0,0,25,0,0,0,20,0,0,0,0,45,0,10,0,0,1000,360.826204,False,19.24399619,C14_LAVES,0.529589496,1462.883306,Ta45 Cr25 Mn20 V10 
2935,0,30,0,20,10,40,0,0,0,0,0,0,0,0,0,0,1000,425.606598,False,28.99913651,BCC_B2#2,0.580785168,1089.157893,Hf40 Co30 Cu20 Fe10 
2936,35,0,0,0,0,0,30,0,0,10,0,0,0,25,0,0,1000,125.2890834,False,0.914988739,BCC_B2#3,1.0,1402.856004,Al35 Mn30 V25 Ni10 
2937,0,0,0,0,0,0,20,0,30,0,25,0,0,25,0,0,1000,691.7047965,False,89.61242924,TA5SI3_D8L,0.433588521,1136.28684,Nb30 Si25 V25 Mn20 
2942,15,0,0,0,30,0,0,0,0,0,10,45,0,0,0,0,1000,453.3191705,False,2.17162061,C14_LAVES,0.47754819,1276.461892,Ta45 Fe30 Al15 Si10 
2943,15,0,0,25,0,0,0,0,0,0,5,40,0,0,0,15,1000,1214.172107,False,3.623790565,SIGMA,0.548012217,789.38159,Ta40 Cu25 Al15 Zr15 Si5 
2944,0,0,0,0,20,0,25,0,0,0,15,30,10,0,0,0,1000,621.1671794,False,21.08509619,C14_LAVES,0.748919605,973.9308207,Ta30 Mn25 Fe20 Si15 Ti10 
2945,0,0,15,0,0,0,35,0,0,0,15,10,25,0,0,0,1000,730.9089682,False,12.04673061,M5SI3_D88,0.382150718,1124.048751,Mn35 Ti25 Cr15 Si15 Ta10 
2950,0,0,0,40,0,0,0,0,0,20,0,0,15,25,0,0,1000,132.6397564,False,17.52580117,T1CUNITI,0.319467943,1062.295128,Cu40 V25 Ni20 Ti15 
2955,0,0,0,0,30,0,15,0,0,20,30,0,5,0,0,0,1000,621.549004,False,8.85041577,BCC_B2,0.499683054,1115.679611,Fe30 Si30 Ni20 Mn15 Ti5 
2956,15,10,0,5,0,0,0,0,0,0,0,35,0,35,0,0,1000,732.0661784,False,5.441510182,MU_PHASE,0.361901623,1067.725537,Ta35 V35 Al15 Co10 Cu5 
2957,15,0,0,0,0,0,5,0,0,0,0,15,45,20,0,0,1000,329.1080244,False,10.03012203,BCC_B2,1.0,1382.345381,Ti45 V20 Al15 Ta15 Mn5 
2958,0,0,0,0,40,0,25,0,0,10,5,0,20,0,0,0,1000,288.9634895,False,13.96527972,C14_LAVES,0.559907594,1119.035035,Fe40 Mn25 Ti20 Ni10 Si5 
2960,0,10,40,0,25,0,0,0,0,25,0,0,0,0,0,0,1000,7.552016877,False,0.96064476,FCC_L12,0.854189225,1390.818254,Cr40 Fe25 Ni25 Co10 
2964,0,0,20,0,0,0,45,0,0,0,0,0,0,25,0,10,1000,175.6798171,False,21.58974795,BCC_B2,0.75696378,1302.82848,Mn45 V25 Cr20 Zr10 
2965,30,0,0,25,0,0,0,0,0,0,10,0,35,0,0,0,1000,1035.975882,False,2.086669503,BCC_B2,0.607417745,901.1338666,Ti35 Al30 Cu25 Si10 
2968,0,0,15,25,0,30,30,0,0,0,0,0,0,0,0,0,1000,725.2721111,False,11.66333815,C14_LAVES,0.675041101,901.207913,Hf30 Mn30 Cu25 Cr15 
2969,0,0,35,0,15,0,0,0,0,0,0,25,0,20,0,5,1000,117.3113661,False,11.4097549,C15_LAVES,0.807920951,1560.628229,Cr35 Ta25 V20 Fe15 Zr5 
2971,0,0,45,0,0,15,0,0,0,0,30,0,0,10,0,0,1000,191.6291845,False,14.13942075,CR3SI_A15,0.733923469,1680.847413,Cr45 Si30 Hf15 V10 
2973,40,5,0,0,15,0,0,0,0,0,25,0,0,0,0,15,1000,528.0608579,False,0.895092473,C14_LAVES,0.454344485,919.4359671,Al40 Si25 Fe15 Zr15 Co5 
2976,0,15,0,0,0,0,10,0,40,0,0,0,0,35,0,0,1000,451.2495729,False,90.54374981,BCC_B2,0.804869167,1052.745811,Nb40 V35 Co15 Mn10 
2977,0,0,0,0,30,0,0,0,25,0,5,10,0,30,0,0,1000,120.7626978,False,49.58296145,BCC_B2,0.676325135,1262.991683,Fe30 V30 Nb25 Ta10 Si5 
2978,0,15,0,0,20,0,45,0,0,0,0,0,0,20,0,0,1000,50.88466959,False,65.78073112,BCC_B2,1.0,1213.669843,Mn45 Fe20 V20 Co15 
2980,0,0,0,0,35,0,25,0,0,0,10,0,15,15,0,0,1000,126.0054397,False,53.68201632,BCC_B2,0.652836375,1120.46438,Fe35 Mn25 Ti15 V15 Si10 
2981,45,0,0,25,15,15,0,0,0,0,0,0,0,0,0,0,1000,529.5283192,False,0.833012569,BCC_B2#2,0.571588938,600.0,Al45 Cu25 Fe15 Hf15 
2986,0,0,20,0,20,0,5,0,0,0,0,35,0,0,0,20,1000,366.4023353,False,10.15607134,C14_LAVES,0.468914803,1276.598542,Ta35 Cr20 Fe20 Zr20 Mn5 
2987,0,0,0,30,15,0,0,0,0,0,0,0,0,10,0,45,1000,307.8666412,False,43.68863741,BCC_B2#2,0.592327416,907.0339165,Zr45 Cu30 Fe15 V10 
2988,0,20,0,45,15,0,15,0,5,0,0,0,0,0,0,0,1000,373.1441335,False,34.26063762,FCC_L12,0.471609384,974.7587327,Cu45 Co20 Fe15 Mn15 Nb5 
2989,0,0,0,30,30,0,0,0,0,0,10,10,20,0,0,0,1000,345.7305536,False,20.19594842,C14_LAVES,0.324742272,1060.833749,Cu30 Fe30 Ti20 Si10 Ta10 
2991,25,0,10,0,0,0,0,0,0,0,0,0,40,5,0,20,1000,222.0590888,False,8.909235045,BCC_B2,0.532870074,1316.050039,Ti40 Al25 Zr20 Cr10 V5 
2993,0,0,0,15,0,0,0,0,20,15,15,0,0,35,0,0,1000,738.1966282,False,26.59051834,CR3SI_A15,0.588283499,897.1698906,V35 Nb20 Cu15 Ni15 Si15 
2996,0,0,0,0,0,30,45,0,0,0,10,0,10,5,0,0,1000,309.2226119,False,29.66697486,C14_LAVES,0.688230461,1244.11911,Mn45 Hf30 Si10 Ti10 V5 
2997,0,0,0,10,45,0,10,0,0,0,30,0,0,0,0,5,1000,486.4344745,False,27.45670629,BCC_B2#2,0.522300083,913.5796327,Fe45 Si30 Cu10 Mn10 Zr5 
3000,0,0,5,0,0,0,20,0,0,10,0,20,0,0,0,45,1000,469.975016,False,10.04000665,C14_LAVES,0.506235951,912.7560012,Zr45 Mn20 Ta20 Ni10 Cr5 
3001,10,0,20,0,45,0,15,0,0,0,0,10,0,0,0,0,1000,49.9235853,False,3.905364975,BCC_B2#2,0.765546208,1483.11984,Fe45 Cr20 Mn15 Al10 Ta10 
3002,0,0,20,0,0,0,0,0,0,0,0,15,40,25,0,0,1000,61.15012947,False,21.98411507,BCC_B2,1.0,1585.225544,Ti40 V25 Cr20 Ta15 
3003,0,0,0,0,0,40,0,0,20,10,0,0,15,15,0,0,1000,571.6559427,False,22.02658946,BCC_B2#2,0.707167776,1060.370888,Hf40 Nb20 Ti15 V15 Ni10 
3005,0,0,0,40,0,0,0,0,0,0,0,10,15,35,0,0,1000,741.945044,False,36.7429749,CU4TI1,0.503465063,883.0815598,Cu40 V35 Ti15 Ta10 
3006,0,0,0,10,0,10,0,0,15,0,35,30,0,0,0,0,1000,1330.913107,False,21.42494959,TA5SI3_D8L,0.808070146,965.0260121,Si35 Ta30 Nb15 Cu10 Hf10 
3007,0,0,0,0,20,0,10,0,0,10,0,0,35,25,0,0,1000,169.4915951,False,24.95629511,BCC_B2,0.372683482,1003.305222,Ti35 V25 Fe20 Mn10 Ni10 
3008,30,15,0,0,0,20,0,0,0,0,20,0,0,0,0,15,1000,472.2831911,False,1.704002848,G_PHASE,0.484138407,1368.549727,Al30 Hf20 Si20 Co15 Zr15 
3009,0,0,0,0,0,0,0,0,0,35,25,0,20,10,0,10,1000,975.5700914,False,15.26497159,C14_LAVES,0.82446159,1777.796387,Ni35 Si25 Ti20 V10 Zr10 
3010,0,0,0,0,0,30,0,0,15,30,0,0,0,25,0,0,1000,268.80155,False,17.41033224,BCC_B2#2,0.606766896,1305.657846,Hf30 Ni30 V25 Nb15 
3015,5,0,0,15,0,0,0,0,0,15,40,0,0,0,0,25,1000,995.3274368,False,4.107884457,MSI_B27,0.492974017,839.900567,Si40 Zr25 Cu15 Ni15 Al5 
3016,0,0,0,0,15,0,0,0,30,0,40,15,0,0,0,0,1000,1086.686848,False,36.47148308,TA5SI3_D8L,0.72,1051.459005,Si40 Nb30 Fe15 Ta15 
3017,0,0,30,0,0,0,0,0,0,10,15,0,45,0,0,0,1000,826.0537062,False,4.524687038,C15_LAVES,0.523349734,976.1615062,Ti45 Cr30 Si15 Ni10 
3018,0,10,0,0,0,10,15,0,0,30,35,0,0,0,0,0,1000,759.8029113,False,9.786229509,MN1NI1SI1,0.431245106,981.6784158,Si35 Ni30 Mn15 Co10 Hf10 
3019,0,0,0,30,0,15,0,0,0,0,40,15,0,0,0,0,1000,1090.957422,False,19.49365614,C14_LAVES,0.279220122,925.4142725,Si40 Cu30 Hf15 Ta15 
3021,0,0,0,0,0,0,0,0,0,15,30,10,0,45,0,0,1000,820.6146295,False,17.48792442,W5SI3_D8M,0.637915969,1026.687496,V45 Si30 Ni15 Ta10 
3023,10,0,40,0,0,0,0,0,25,0,0,0,25,0,0,0,1000,213.2222431,False,24.99682115,C14_LAVES,0.548229723,1576.220078,Cr40 Nb25 Ti25 Al10 
3024,0,10,0,20,0,0,0,0,10,0,0,15,0,0,0,45,1000,823.3686739,False,19.57063194,MOSI2_C11B,0.403871309,925.556063,Zr45 Cu20 Ta15 Co10 Nb10 
3025,0,0,0,45,10,25,20,0,0,0,0,0,0,0,0,0,1000,655.524697,False,34.45232587,CU51HF14,0.505522945,786.6506542,Cu45 Hf25 Mn20 Fe10 
3026,0,15,30,0,0,0,0,0,15,0,0,0,40,0,0,0,1000,472.7247228,False,28.22240415,C14_LAVES,0.549725474,939.3830314,Ti40 Cr30 Co15 Nb15 
3028,0,25,0,0,5,0,10,0,0,25,0,0,0,35,0,0,1000,58.17480785,False,19.86165187,FCC_L12,1.0,1148.828762,V35 Co25 Ni25 Mn10 Fe5 
3029,0,45,0,15,0,30,0,0,0,10,0,0,0,0,0,0,1000,428.7636175,False,14.19452837,C15_LAVES,0.734404661,1052.380141,Co45 Hf30 Cu15 Ni10 
3034,0,0,0,15,15,0,0,0,0,0,0,10,25,35,0,0,1000,373.1289695,False,35.4831234,BCC_B2,0.448578264,1006.499894,V35 Ti25 Cu15 Fe15 Ta10 
3035,15,0,0,35,0,0,0,0,35,0,0,0,15,0,0,0,1000,853.5705608,False,10.37479784,BCC_B2#2,0.525438589,848.1626875,Cu35 Nb35 Al15 Ti15 
3037,0,15,5,0,0,0,0,0,35,0,25,20,0,0,0,0,1000,896.1573885,False,30.13706382,TA5SI3_D8L,0.613825766,1191.740331,Nb35 Si25 Ta20 Co15 Cr5 
3038,35,10,20,0,0,20,0,0,15,0,0,0,0,0,0,0,1000,698.4930891,False,3.321934956,C14_LAVES,0.699837177,1212.638924,Al35 Cr20 Hf20 Nb15 Co10 
3040,40,0,0,0,0,20,0,0,25,0,0,0,0,15,0,0,1000,133.9275051,False,8.644027859,BCC_B2,0.930323364,1480.889467,Al40 Nb25 Hf20 V15 
3043,0,0,10,0,0,0,45,0,0,10,0,0,0,0,0,35,1000,380.0988068,False,12.98433596,C14_LAVES,0.904918468,1033.963718,Mn45 Zr35 Cr10 Ni10 
3046,0,20,0,25,0,20,0,0,0,0,0,0,35,0,0,0,1000,554.5299429,False,21.86857581,CUTI_B11,0.473191101,887.7982298,Ti35 Cu25 Co20 Hf20 
3048,30,0,20,0,0,0,15,0,0,0,0,0,35,0,0,0,1000,136.3131928,False,3.157873498,BCC_B2,1.0,1455.698452,Ti35 Al30 Cr20 Mn15 
3049,20,0,0,0,15,0,0,0,0,35,0,0,0,0,0,30,1000,215.6071985,False,0.370140967,HEUSLER_L21,0.40950576,954.1575042,Ni35 Zr30 Al20 Fe15 
3050,0,10,0,45,0,10,0,0,0,0,0,35,0,0,0,0,1000,903.9521406,False,18.02946434,CU51HF14,0.310772636,1053.389922,Cu45 Ta35 Co10 Hf10 
3051,40,0,0,25,0,0,10,0,0,10,0,0,0,15,0,0,1000,553.1062023,False,0.799349089,BCC_B2#2,0.692017374,1003.285025,Al40 Cu25 V15 Mn10 Ni10 
3053,0,0,0,0,0,0,25,0,45,0,15,0,5,0,0,10,1000,342.622871,False,43.7255068,M3SI,0.504654594,1340.645942,Nb45 Mn25 Si15 Zr10 Ti5 
3054,0,20,0,0,0,0,0,0,10,0,0,25,0,0,0,45,1000,476.0313936,False,18.98685959,C16_THETA,0.581970879,1108.605205,Zr45 Ta25 Co20 Nb10 
3055,0,20,0,0,0,0,10,0,0,40,0,10,20,0,0,0,1000,301.0685697,False,7.495536724,NI3TI_D024,0.286272897,802.9617871,Ni40 Co20 Ti20 Mn10 Ta10 
3056,0,0,0,45,10,0,20,0,0,0,20,0,5,0,0,0,1000,677.3258921,False,53.85066265,FCC_L12,0.53351021,856.6967727,Cu45 Mn20 Si20 Fe10 Ti5 
3057,0,0,10,20,45,0,20,0,0,5,0,0,0,0,0,0,1000,335.0388834,False,27.73891291,FCC_L12#2,0.762838338,961.7102534,Fe45 Cu20 Mn20 Cr10 Ni5 
3058,0,0,0,0,30,10,10,0,0,35,15,0,0,0,0,0,1000,254.081014,False,9.505362329,G_PHASE,0.46468047,985.3474177,Ni35 Fe30 Si15 Hf10 Mn10 
3059,0,0,0,30,45,0,0,0,0,0,0,15,10,0,0,0,1000,639.1692983,False,19.59960228,C14_LAVES,0.687876098,968.4553637,Fe45 Cu30 Ta15 Ti10 
3062,0,0,0,0,10,10,45,0,0,0,0,0,0,5,0,30,1000,514.7636333,False,33.75879443,C14_LAVES,0.905062442,1011.920126,Mn45 Zr30 Fe10 Hf10 V5 
3066,0,0,0,0,40,0,15,0,10,0,0,0,0,35,0,0,1000,65.10366482,False,51.02428034,BCC_B2,0.908710156,1308.614446,Fe40 V35 Mn15 Nb10 
3067,20,0,0,0,10,25,0,0,0,0,0,0,45,0,0,0,1000,180.8638061,False,4.774013953,BCC_B2#2,0.795816951,914.5904491,Ti45 Hf25 Al20 Fe10 