,Al,Co,Cr,Cu,Fe,Hf,Mn,Mo,Nb,Ni,Si,Ta,Ti,V,W,Zr,T (C),freeze_range,literature,mass_change,max_phase,max_phase_fraction,solidus,composition
2,0,30,0,0,15,0,0,0,0,5,20,0,0,30,0,0,1000,365.9990168,False,40.01633842,BCC_B2#2,0.512862392,866.8526324,Co30 V30 Si20 Fe15 Ni5 
7,0,0,0,40,10,0,0,0,0,20,30,0,0,0,0,0,1000,99.11161353,False,11.86328508,CU6NISI3,0.449713569,1157.259027,Cu40 Si30 Ni20 Fe10 
8,0,10,15,45,0,0,0,0,25,0,0,5,0,0,0,0,1000,466.998652,False,21.98738169,FCC_L12,0.453770193,1088.657416,Cu45 Nb25 Cr15 Co10 Ta5 
10,0,0,0,0,10,0,0,0,0,30,35,0,0,25,0,0,1000,392.4704293,False,18.67003072,CO2SI_C23,0.599999993,1204.657615,Si35 Ni30 V25 Fe10 
12,0,10,20,0,0,0,30,0,0,40,0,0,0,0,0,0,1000,42.11896961,False,3.248909925,FCC_L12,1.0,1185.034286,Ni40 Mn30 Cr20 Co10 
16,0,0,0,0,0,0,25,0,10,0,10,0,45,10,0,0,1000,276.4750579,False,43.49351461,BCC_B2,0.631046264,1159.083379,Ti45 Mn25 Nb10 Si10 V10 
18,0,15,45,0,5,0,0,0,25,0,0,0,0,0,0,10,1000,302.7023882,False,19.38246685,C14_LAVES,0.667045864,1368.549921,Cr45 Nb25 Co15 Zr10 Fe5 
20,0,0,0,0,10,0,35,0,0,0,0,0,5,25,0,25,1000,197.7886255,False,54.55144705,C14_LAVES,0.6151989,1024.528164,Mn35 V25 Zr25 Fe10 Ti5 
21,5,0,30,25,0,10,0,0,0,30,0,0,0,0,0,0,1000,482.0705825,False,1.133039007,NI7ZR2,0.297007427,945.8846617,Cr30 Ni30 Cu25 Hf10 Al5 
22,0,0,0,0,15,0,0,0,0,0,0,30,0,10,0,45,1000,757.8724016,False,29.47614699,BCC_B2#2,0.394023936,997.2592904,Zr45 Ta30 Fe15 V10 
23,0,0,0,20,0,15,10,0,40,0,15,0,0,0,0,0,1000,1020.437471,False,34.63175831,TA5SI3_D8L,0.399417109,879.863861,Nb40 Cu20 Hf15 Si15 Mn10 
24,15,20,0,0,0,5,25,0,35,0,0,0,0,0,0,0,1000,325.8614544,False,8.764640958,C14_LAVES,0.951217935,1314.460358,Nb35 Mn25 Co20 Al15 Hf5 
26,20,0,0,0,20,0,0,0,0,0,0,0,20,0,0,40,1000,279.0725537,False,6.151944214,AL3ZR5,0.521016814,953.9634752,Zr40 Al20 Fe20 Ti20 
28,0,5,0,0,0,0,15,0,0,0,45,25,0,10,0,0,1000,631.5308744,False,31.59086368,FESI_B20,0.4,884.8395318,Si45 Ta25 Mn15 V10 Co5 
31,0,20,0,10,0,0,0,0,0,30,5,0,0,35,0,0,1000,250.4719596,False,21.07893525,FCC_L12#3,0.543598574,865.7422435,V35 Ni30 Co20 Cu10 Si5 
33,20,0,0,0,0,30,0,0,0,30,0,5,15,0,0,0,1000,185.6358814,False,1.096100081,HEUSLER_L21,0.384100633,724.8238172,Hf30 Ni30 Al20 Ti15 Ta5 
34,0,0,5,0,25,35,0,0,0,0,0,25,0,10,0,0,1000,328.0828457,False,23.61732126,C15_LAVES,0.64158301,1359.337661,Hf35 Fe25 Ta25 V10 Cr5 
36,0,0,35,0,0,10,35,0,0,0,0,20,0,0,0,0,1000,445.9500436,False,9.060552765,C14_LAVES,0.895278889,1426.976046,Cr35 Mn35 Ta20 Hf10 
37,0,0,0,0,25,10,30,0,0,0,0,35,0,0,0,0,1000,109.0510715,False,19.40594102,C14_LAVES,0.858211857,1549.277349,Ta35 Mn30 Fe25 Hf10 
38,0,0,35,0,20,5,0,0,0,15,0,0,25,0,0,0,1000,339.9747506,False,3.522623231,C14_LAVES,0.715072456,1083.262609,Cr35 Ti25 Fe20 Ni15 Hf5 
39,25,0,0,0,35,0,0,0,30,10,0,0,0,0,0,0,1000,293.7165621,False,0.92842736,C14_LAVES,0.890578863,1449.57012,Fe35 Nb30 Al25 Ni10 
40,5,0,0,20,0,10,0,0,20,0,0,0,45,0,0,0,1000,826.3734845,False,22.12819503,MOSI2_C11B,0.523284865,841.9954426,Ti45 Cu20 Nb20 Hf10 Al5 
41,0,20,35,0,15,0,30,0,0,0,0,0,0,0,0,0,1000,104.6878429,False,8.914006205,BCC_B2,1.0,1310.100006,Cr35 Mn30 Co20 Fe15 
44,0,0,10,0,0,15,0,0,0,45,0,20,0,10,0,0,1000,395.0773968,False,7.870086975,FCC_L12,0.399844864,934.6931695,Ni45 Ta20 Hf15 Cr10 V10 
45,0,0,0,0,0,0,0,0,0,0,0,30,20,40,0,10,1000,409.1265968,False,36.34207121,BCC_B2#2,1.0,1528.9291,V40 Ta30 Ti20 Zr10 
49,10,0,40,0,0,0,0,0,5,0,10,0,0,35,0,0,1000,95.73269539,False,13.84055546,BCC_B2,0.871196992,1629.314632,Cr40 V35 Al10 Si10 Nb5 
51,0,30,15,0,10,0,0,0,0,0,0,0,0,45,0,0,1000,184.7196703,False,28.91814357,BCC_B2,1.0,1230.867104,V45 Co30 Cr15 Fe10 
52,0,0,0,0,0,35,0,0,20,0,0,0,25,20,0,0,1000,115.6956509,False,51.49016989,BCC_B2,1.0,1591.084879,Hf35 Ti25 Nb20 V20 
53,0,0,10,0,25,0,0,0,30,35,0,0,0,0,0,0,1000,335.7189475,False,6.763461133,C14_LAVES,1.0,1231.379509,Ni35 Nb30 Fe25 Cr10 
55,15,0,0,0,20,0,35,0,15,0,15,0,0,0,0,0,1000,251.1213846,False,8.079114684,BCC_B2,0.777560403,1143.460968,Mn35 Fe20 Al15 Nb15 Si15 
56,0,0,0,0,0,0,25,0,30,0,30,0,0,0,0,15,1000,853.6720806,False,52.01286337,TA5SI3_D8L,0.460843551,1044.34101,Nb30 Si30 Mn25 Zr15 
57,0,5,0,0,45,0,0,0,15,0,0,10,25,0,0,0,1000,442.4814452,False,31.99330658,BCC_B2#2,0.378351571,1215.982161,Fe45 Ti25 Nb15 Ta10 Co5 
58,35,0,0,10,0,0,0,0,0,35,0,0,20,0,0,0,1000,320.2901448,False,0.26618713,BCC_B2#2,0.846574111,998.0768036,Al35 Ni35 Ti20 Cu10 
59,0,15,0,0,40,10,0,0,0,0,30,5,0,0,0,0,1000,347.9035627,False,16.20941,G_PHASE,0.480137006,947.4807088,Fe40 Si30 Co15 Hf10 Ta5 
62,0,10,5,0,0,0,0,0,0,40,0,15,0,30,0,0,1000,93.18661996,False,8.739855683,BCC_B2,0.459378734,1106.315772,Ni40 V30 Ta15 Co10 Cr5 
63,10,0,0,5,20,40,0,0,0,0,25,0,0,0,0,0,1000,1131.447431,False,6.944927232,M3SI2_D5A,0.556165149,1015.388132,Hf40 Si25 Fe20 Al10 Cu5 
64,10,0,0,35,0,0,20,0,0,0,0,0,0,35,0,0,1000,558.4646803,False,27.7316394,BCC_B2,0.603755985,974.323665,Cu35 V35 Mn20 Al10 
66,0,0,15,0,0,20,0,0,0,0,35,20,0,10,0,0,1000,497.4970392,False,18.689888,C16_THETA,0.403912409,1556.674395,Si35 Hf20 Ta20 Cr15 V10 
67,0,0,10,0,0,0,35,0,0,0,40,0,15,0,0,0,1000,508.6944612,False,28.80360348,M5SI3_D88,0.365879014,1213.520393,Si40 Mn35 Ti15 Cr10 
68,0,25,10,20,0,0,0,0,10,0,35,0,0,0,0,0,1000,753.4833366,False,29.48539976,M6SI5,0.352794011,1035.243905,Si35 Co25 Cu20 Cr10 Nb10 
69,20,0,0,0,0,0,0,0,25,0,0,15,25,15,0,0,1000,313.4401822,False,14.97285317,BCC_B2,1.0,1572.96028,Nb25 Ti25 Al20 Ta15 V15 
72,0,0,45,0,0,10,0,0,25,20,0,0,0,0,0,0,1000,478.2138691,False,4.750184174,C14_LAVES,0.870619624,1161.550671,Cr45 Nb25 Ni20 Hf10 
74,30,10,0,40,0,0,0,0,0,0,0,0,0,20,0,0,1000,410.2511047,False,2.280945362,BCC_B2#3,0.554745794,1069.213881,Cu40 Al30 V20 Co10 
75,0,0,15,0,20,5,0,0,0,35,0,0,0,0,0,25,1000,212.2851479,False,3.507890413,C15_LAVES,0.834118613,1218.073895,Ni35 Zr25 Fe20 Cr15 Hf5 
77,25,0,0,10,40,25,0,0,0,0,0,0,0,0,0,0,1000,818.8507276,False,1.018170105,C15_LAVES,0.560284798,629.8995708,Fe40 Al25 Hf25 Cu10 
78,0,0,0,20,0,30,0,0,0,10,10,0,0,0,0,30,1000,917.4150507,False,10.71314897,C16_THETA,0.380751139,875.0827285,Hf30 Zr30 Cu20 Ni10 Si10 
80,35,10,0,0,35,0,0,0,0,20,0,0,0,0,0,0,1000,42.80346456,False,0.158670614,BCC_B2#2,1.0,1502.006407,Al35 Fe35 Ni20 Co10 
84,0,25,0,0,5,0,0,0,25,0,35,0,0,10,0,0,1000,766.8290182,False,76.07448226,CO2SI_C23,0.433480019,889.9950786,Si35 Co25 Nb25 V10 Fe5 
87,0,0,0,0,0,0,0,0,10,0,35,40,15,0,0,0,1000,351.8660515,False,19.89480887,TA5SI3_D8L,0.438059246,1890.883018,Ta40 Si35 Ti15 Nb10 
89,0,45,20,15,0,0,0,0,0,0,0,0,0,20,0,0,1000,168.0144317,False,23.64236684,HCP_A3,0.849455927,1083.790811,Co45 Cr20 V20 Cu15 
91,25,0,0,10,0,0,0,0,0,0,25,0,0,0,0,40,1000,1118.749583,False,1.214918764,ZR5SI4_TP36,0.527055558,887.9149293,Zr40 Al25 Si25 Cu10 
92,10,0,15,0,0,0,0,0,0,40,0,0,35,0,0,0,1000,47.05590154,False,1.081722329,BCC_B2#2,0.953004814,1217.200329,Ni40 Ti35 Cr15 Al10 
93,0,15,0,0,15,0,40,0,0,0,0,0,20,10,0,0,1000,40.83944347,False,45.77724448,BCC_B2,0.65575182,1059.719132,Mn40 Ti20 Co15 Fe15 V10 
94,0,0,25,25,35,10,0,0,0,0,0,0,0,0,0,5,1000,447.351811,False,4.869399447,C15_LAVES,0.449197786,954.2071943,Fe35 Cr25 Cu25 Hf10 Zr5 
96,0,10,0,5,0,0,25,0,0,0,0,0,0,30,0,30,1000,480.1334081,False,50.63797464,BCC_B2,0.361834517,817.8593748,V30 Zr30 Mn25 Co10 Cu5 
98,0,20,20,0,35,15,0,0,0,10,0,0,0,0,0,0,1000,136.2063437,False,4.059430986,BCC_B2,0.548974297,1304.523731,Fe35 Co20 Cr20 Hf15 Ni10 
99,0,30,0,20,0,0,0,0,0,10,0,15,25,0,0,0,1000,276.693185,False,12.04454825,BCC_B2#2,0.530938433,1044.36179,Co30 Ti25 Cu20 Ta15 Ni10 
103,0,5,0,0,15,0,0,0,0,0,15,0,25,0,0,40,1000,694.7427197,False,34.60706206,M3SI,0.328882653,939.2044803,Zr40 Ti25 Fe15 Si15 Co5 
104,20,0,30,0,10,0,40,0,0,0,0,0,0,0,0,0,1000,76.24752744,False,2.736194652,BCC_B2,1.0,1442.550584,Mn40 Cr30 Al20 Fe10 
105,0,0,0,0,0,10,30,0,0,0,30,30,0,0,0,0,1000,1068.215253,False,20.02584808,C16_THETA,0.345221786,837.5944477,Mn30 Si30 Ta30 Hf10 
106,0,0,20,10,0,0,0,0,0,25,40,5,0,0,0,0,1000,528.2427481,False,1.50351512,M4SI3,0.699124298,712.7076682,Si40 Ni25 Cr20 Cu10 Ta5 
109,0,0,15,0,0,45,0,0,0,10,25,0,0,5,0,0,1000,1160.99385,False,7.944918982,M3SI2_D5A,0.586457783,936.1555113,Hf45 Si25 Cr15 Ni10 V5 
110,0,45,0,0,25,20,0,0,10,0,0,0,0,0,0,0,1000,276.0311829,False,20.15240732,C15_LAVES,0.914668963,1310.240033,Co45 Fe25 Hf20 Nb10 
111,0,35,25,0,0,0,0,0,0,0,30,0,0,0,0,10,1000,207.0147744,False,9.136405909,CO2SI_C23,0.398190861,1194.474336,Co35 Si30 Cr25 Zr10 
113,0,0,0,0,0,0,0,0,0,35,0,20,10,0,0,35,1000,58.11559761,False,6.800223652,BCC_B2#2,0.639783102,1187.607647,Ni35 Zr35 Ta20 Ti10 
114,0,10,0,0,0,40,0,0,20,0,0,0,0,25,0,5,1000,560.8075952,False,34.84491702,BCC_B2,0.665877328,1179.009977,Hf40 V25 Nb20 Co10 Zr5 
115,10,0,0,40,0,30,0,0,0,0,15,5,0,0,0,0,1000,1330.672817,False,6.599180472,M3SI2_D5A,0.37499999,600.0,Cu40 Hf30 Si15 Al10 Ta5 
117,15,0,0,10,0,0,0,0,30,25,0,0,0,20,0,0,1000,183.9176496,False,8.817858783,BCC_B2#2,0.969216348,1265.606189,Nb30 Ni25 V20 Al15 Cu10 
118,25,40,10,0,0,0,0,0,0,0,20,5,0,0,0,0,1000,309.7797609,False,0.815397338,BCC_B2#2,0.748508308,1307.00866,Co40 Al25 Si20 Cr10 Ta5 
119,0,10,20,0,0,0,0,0,25,45,0,0,0,0,0,0,1000,194.1922513,False,3.783241891,C14_LAVES,0.632530068,1209.126841,Ni45 Nb25 Cr20 Co10 
120,10,0,0,0,0,0,10,0,40,40,0,0,0,0,0,0,1000,309.4723613,False,6.138580149,C14_LAVES,0.882740609,1139.008479,Nb40 Ni40 Al10 Mn10 
123,0,0,10,0,25,20,0,0,5,0,0,40,0,0,0,0,1000,335.8696262,False,16.15909528,C14_LAVES,0.606737298,1527.711871,Ta40 Fe25 Hf20 Cr10 Nb5 
124,0,0,0,0,0,0,25,0,0,15,0,35,0,20,0,5,1000,627.4398557,False,11.57032842,C16_THETA,0.390789397,999.8121929,Ta35 Mn25 V20 Ni15 Zr5 
125,0,0,0,0,20,0,0,0,0,0,15,0,0,30,0,35,1000,559.3834979,False,46.54496292,C16_THETA,0.336357929,1276.01859,Zr35 V30 Fe20 Si15 
126,0,15,0,0,35,0,30,0,0,0,0,0,0,0,0,20,1000,259.1908354,False,28.86361764,C14_LAVES,0.597544529,1124.234347,Fe35 Mn30 Zr20 Co15 
127,35,0,35,5,0,0,0,0,15,0,0,10,0,0,0,0,1000,929.4507972,False,4.500378115,C14_LAVES,0.489494759,933.2397704,Al35 Cr35 Nb15 Ta10 Cu5 
128,0,10,0,0,0,0,0,0,25,0,20,0,0,45,0,0,1000,735.1083494,False,83.02431646,CR3SI_A15,0.800275709,1065.093115,V45 Nb25 Si20 Co10 
129,40,30,0,20,0,10,0,0,0,0,0,0,0,0,0,0,1000,746.5837752,False,1.079365899,HEUSLER_L21,0.505816501,949.9455849,Al40 Co30 Cu20 Hf10 
130,40,15,30,0,0,0,0,0,0,0,0,0,0,15,0,0,1000,179.2644327,False,2.367299542,BCC_B2,0.581630902,1372.315925,Al40 Cr30 Co15 V15 
131,0,0,0,0,0,0,0,0,25,0,0,30,25,0,0,20,1000,330.6836645,False,50.28478362,BCC_B2#2,1.0,1832.454352,Ta30 Nb25 Ti25 Zr20 
134,0,25,0,0,15,10,10,0,0,0,0,0,40,0,0,0,1000,328.8895323,False,23.86815728,BCC_B2#2,0.59441244,1096.45756,Ti40 Co25 Fe15 Hf10 Mn10 
135,0,0,0,0,20,30,40,0,0,0,0,0,0,10,0,0,1000,428.4009428,False,38.06594276,C14_LAVES,0.852959582,1260.327079,Mn40 Hf30 Fe20 V10 
136,25,10,0,0,0,0,0,0,15,0,25,25,0,0,0,0,1000,481.7554947,False,5.717293719,C14_LAVES,0.63354092,1467.148753,Al25 Si25 Ta25 Nb15 Co10 
139,20,0,10,0,0,35,30,0,0,0,0,0,0,5,0,0,1000,376.2948474,False,2.580393659,C14_LAVES,0.78985674,1250.999749,Hf35 Mn30 Al20 Cr10 V5 
140,15,0,0,0,0,0,15,0,0,0,0,35,35,0,0,0,1000,747.6329359,False,5.023004656,BCC_B2,0.834873963,1321.530476,Ta35 Ti35 Al15 Mn15 
141,20,0,0,0,0,0,0,0,10,40,0,0,15,0,0,15,1000,60.95161082,False,1.122799855,BCC_B2#2,0.606957225,1151.517023,Ni40 Al20 Ti15 Zr15 Nb10 
143,5,0,40,0,30,0,0,0,0,0,0,15,0,10,0,0,1000,80.48633647,False,11.25091646,BCC_B2,0.624580639,1510.498322,Cr40 Fe30 Ta15 V10 Al5 
147,0,0,0,35,0,20,0,0,0,0,0,25,20,0,0,0,1000,1202.662885,False,19.68113019,MOSI2_C11B,0.408960253,873.5152087,Cu35 Ta25 Hf20 Ti20 
148,15,5,0,0,0,0,0,0,20,35,0,0,0,0,0,25,1000,452.9416845,False,4.182761739,HEUSLER_L21,0.566908083,969.4435069,Ni35 Zr25 Nb20 Al15 Co5 
149,0,25,15,0,0,10,0,0,0,0,0,5,0,0,0,45,1000,383.0086465,False,14.53462844,C16_THETA,0.60262503,1080.455036,Zr45 Co25 Cr15 Hf10 Ta5 
150,15,0,25,0,45,0,0,0,0,0,15,0,0,0,0,0,1000,46.92920619,False,0.971738834,BCC_B2#2,1.0,1269.301561,Fe45 Cr25 Al15 Si15 
152,0,10,10,35,0,10,0,0,0,0,0,0,35,0,0,0,1000,445.820102,False,19.72975216,CUTI_B11,0.362654172,877.4677571,Cu35 Ti35 Co10 Cr10 Hf10 
154,0,0,40,0,0,0,25,0,15,20,0,0,0,0,0,0,1000,378.7763398,False,3.989788317,C14_LAVES,0.418009374,1001.928683,Cr40 Mn25 Ni20 Nb15 
155,25,25,0,0,0,0,0,0,0,0,0,10,25,15,0,0,1000,434.2011317,False,7.853574591,GPHASE_ALCOTI,0.36006311,1001.810893,Al25 Co25 Ti25 V15 Ta10 
156,0,0,0,10,0,0,0,0,0,0,0,0,35,25,0,30,1000,366.4669545,False,60.46395349,BCC_B2#2,0.62708071,926.2681622,Ti35 Zr30 V25 Cu10 
157,0,0,0,0,10,20,0,0,0,0,30,0,40,0,0,0,1000,952.3300884,False,21.71099389,M5SI3_D88,0.590480868,979.3316952,Ti40 Si30 Hf20 Fe10 
160,0,0,0,0,30,0,0,0,5,0,0,35,0,10,0,20,1000,700.0698693,False,26.23769428,C15_LAVES,0.557529398,986.4092751,Ta35 Fe30 Zr20 V10 Nb5 
162,0,10,0,40,0,0,0,0,20,0,30,0,0,0,0,0,1000,845.0026267,False,47.39358043,TA5SI3_D8L,0.265674898,1005.457525,Cu40 Si30 Nb20 Co10 
163,0,10,30,25,0,0,0,0,0,5,0,30,0,0,0,0,1000,520.7790034,False,3.388671319,C15_LAVES,0.547244348,1081.965574,Cr30 Ta30 Cu25 Co10 Ni5 
165,35,0,0,0,10,0,20,0,10,0,0,0,0,25,0,0,1000,96.95289755,False,6.216499297,BCC_B2#2,1.0,1464.891842,Al35 V25 Mn20 Fe10 Nb10 
166,20,0,15,0,0,0,0,0,0,0,0,0,20,0,0,45,1000,257.08328,False,7.557826976,HCP_A3,0.599761065,1303.117073,Zr45 Al20 Ti20 Cr15 
168,0,0,0,0,0,0,30,0,0,40,0,15,15,0,0,0,1000,168.6926121,False,7.640647341,FCC_L12#2,0.36539108,646.0020147,Ni40 Mn30 Ta15 Ti15 
171,0,20,15,0,0,0,0,0,20,0,0,0,0,0,0,45,1000,345.3227139,False,33.80615839,C16_THETA,0.575902554,1014.163114,Zr45 Co20 Nb20 Cr15 
172,0,10,25,0,0,5,0,0,35,0,0,25,0,0,0,0,1000,471.3974896,False,20.14360364,BCC_B2,0.5005847,1481.586282,Nb35 Cr25 Ta25 Co10 Hf5 
173,5,0,0,0,0,30,0,0,10,25,0,0,0,30,0,0,1000,637.0093369,False,9.59447961,BCC_B2#2,0.592138284,951.9407282,Hf30 V30 Ni25 Nb10 Al5 
174,0,25,0,0,0,40,15,0,0,5,0,0,15,0,0,0,1000,418.8616073,False,11.76475616,NITI2,0.485501065,993.2641858,Hf40 Co25 Mn15 Ti15 Ni5 
175,0,0,0,0,0,10,10,0,0,35,25,0,0,20,0,0,1000,460.3192274,False,16.21702617,G_PHASE,0.227199772,1147.126613,Ni35 Si25 V20 Hf10 Mn10 
177,0,0,0,0,0,20,0,0,0,15,0,25,0,40,0,0,1000,544.6043841,False,14.21175909,C15_LAVES,0.69565706,1289.031933,V40 Ta25 Hf20 Ni15 
178,0,0,40,10,0,0,0,0,0,0,40,0,0,10,0,0,1000,638.8228301,False,17.84314299,W5SI3_D8M,0.588745156,861.1999927,Cr40 Si40 Cu10 V10 
180,0,0,0,0,0,0,0,0,0,35,15,0,10,30,0,10,1000,1304.300605,False,13.96699666,C14_LAVES,0.599989824,1154.383277,Ni35 V30 Si15 Ti10 Zr10 
181,0,35,0,0,15,20,0,0,0,30,0,0,0,0,0,0,1000,149.79944,False,9.871351618,NI7ZR2,0.478050715,1166.413682,Co35 Ni30 Hf20 Fe15 
182,0,45,0,30,0,0,15,0,10,0,0,0,0,0,0,0,1000,319.9390896,False,35.96340236,FCC_L12#2,0.580607132,996.6057635,Co45 Cu30 Mn15 Nb10 
183,0,15,40,0,0,20,20,0,0,0,0,0,5,0,0,0,1000,116.2283085,False,8.328771857,BCC_B2,0.415287715,1408.067922,Cr40 Hf20 Mn20 Co15 Ti5 
184,0,0,5,0,0,0,0,0,20,0,35,0,0,30,0,10,1000,156.5847197,False,62.44870848,CR3SI_A15,0.518007218,1799.245177,Si35 V30 Nb20 Zr10 Cr5 
185,10,10,0,0,40,0,0,0,0,0,0,30,10,0,0,0,1000,197.9571968,False,4.805503501,C14_LAVES,0.987677482,1437.648028,Fe40 Ta30 Al10 Co10 Ti10 
186,0,0,0,0,0,30,5,0,20,0,0,15,0,0,0,30,1000,379.1633747,False,37.64366959,BCC_B2#2,1.0,1551.986005,Hf30 Zr30 Nb20 Ta15 Mn5 
187,0,0,0,0,0,0,0,0,10,0,5,20,35,30,0,0,1000,491.1178473,False,33.52439136,BCC_B2,0.86898517,1422.634914,Ti35 V30 Ta20 Nb10 Si5 
193,0,0,0,25,0,0,0,0,0,0,15,0,25,35,0,0,1000,822.766371,False,52.15062625,CR3SI_A15,0.61050052,880.775436,V35 Cu25 Ti25 Si15 
195,15,0,0,0,0,0,10,0,30,0,0,0,5,0,0,40,1000,441.4363128,False,20.09951443,BCC_B2#2,0.947247837,1192.861601,Zr40 Nb30 Al15 Mn10 Ti5 
197,0,0,0,0,40,10,0,0,15,15,0,0,20,0,0,0,1000,515.2374796,False,10.48852557,C14_LAVES,0.680002741,1046.319813,Fe40 Ti20 Nb15 Ni15 Hf10 
199,0,0,0,0,0,0,10,0,30,0,0,40,5,15,0,0,1000,951.633223,False,54.47234982,BCC_B2,1.0,1394.179964,Ta40 Nb30 V15 Mn10 Ti5 
201,25,35,0,0,25,0,0,0,0,0,0,0,0,15,0,0,1000,50.50877173,False,3.023401364,BCC_B2#2,1.0,1365.79806,Co35 Al25 Fe25 V15 
203,0,15,0,45,0,20,0,0,0,10,0,10,0,0,0,0,1000,410.5900282,False,10.21399802,NI5ZR_C15B,0.49628848,989.5898817,Cu45 Hf20 Co15 Ni10 Ta10 
205,0,25,5,10,0,0,35,0,0,0,25,0,0,0,0,0,1000,293.8638163,False,51.33143411,FCC_L12,0.592429086,750.4245727,Mn35 Co25 Si25 Cu10 Cr5 
206,0,20,0,0,0,25,0,0,0,0,35,15,0,5,0,0,1000,885.9102601,False,25.81772387,C14_LAVES,0.42389988,846.9867343,Si35 Hf25 Co20 Ta15 V5 
207,0,5,0,0,40,15,25,0,15,0,0,0,0,0,0,0,1000,453.4551499,False,28.10913492,C14_LAVES,0.897339129,1236.220299,Fe40 Mn25 Hf15 Nb15 Co5 
208,0,15,0,0,0,0,0,0,15,0,0,0,25,45,0,0,1000,343.2968702,False,75.22727492,BCC_B2,0.746934359,1134.277576,V45 Ti25 Co15 Nb15 
209,0,0,0,0,15,0,0,0,0,0,30,10,0,45,0,0,1000,603.6855992,False,36.94439233,W5SI3_D8M,0.719988239,1169.399398,V45 Si30 Fe15 Ta10 
211,20,0,0,15,0,0,0,0,0,0,40,0,25,0,0,0,1000,885.1945134,False,3.50207616,ALSI3TI2,0.627141277,788.8535143,Si40 Ti25 Al20 Cu15 
212,15,0,25,0,0,0,0,0,20,0,10,0,30,0,0,0,1000,343.3443321,False,15.3512592,C14_LAVES,0.493665092,1485.306669,Ti30 Cr25 Nb20 Al15 Si10 
214,0,0,0,0,0,0,25,0,30,0,0,20,0,10,0,15,1000,518.9858645,False,56.04435602,BCC_B2,0.575441584,1273.426575,Nb30 Mn25 Ta20 Zr15 V10 
215,10,0,0,0,25,25,0,0,0,0,0,0,40,0,0,0,1000,127.4144767,False,8.78456779,BCC_B2,0.56686227,923.2939345,Ti40 Fe25 Hf25 Al10 
217,0,10,5,30,0,0,0,0,0,0,0,45,0,0,0,10,1000,747.7311234,False,14.73381687,CU51ZR14,0.382339348,1095.958019,Ta45 Cu30 Co10 Zr10 Cr5 
219,25,0,15,0,0,0,0,0,40,0,0,0,20,0,0,0,1000,41.63551218,False,5.35228956,BCC_B2#2,0.819944011,1733.823211,Nb40 Al25 Ti20 Cr15 
220,0,0,0,0,10,25,0,0,0,0,0,30,35,0,0,0,1000,780.4248795,False,21.78939501,BCC_B2#2,1.0,1165.303781,Ti35 Ta30 Hf25 Fe10 
224,0,0,5,35,0,40,0,0,0,0,0,0,10,0,0,10,1000,386.8244034,False,15.53301939,MOSI2_C11B,0.76121745,845.6614896,Hf40 Cu35 Ti10 Zr10 Cr5 
229,0,30,0,0,20,0,40,0,0,10,0,0,0,0,0,0,1000,32.2457139,False,26.02808782,FCC_L12,1.0,1213.438965,Mn40 Co30 Fe20 Ni10 
230,0,0,0,0,0,30,0,0,0,20,40,0,0,10,0,0,1000,805.2366062,False,14.74048455,MSI_B27,0.454385193,1005.953833,Si40 Hf30 Ni20 V10 
232,0,0,0,15,0,15,15,0,0,40,0,0,0,15,0,0,1000,176.8874053,False,15.83259381,SIGMA,0.367200498,859.9173739,Ni40 Cu15 Hf15 Mn15 V15 
233,0,0,5,0,30,0,0,0,0,0,35,20,0,10,0,0,1000,274.0055932,False,24.93662989,C14_LAVES,0.598898279,1015.733121,Si35 Fe30 Ta20 V10 Cr5 
239,0,0,0,0,10,0,30,0,0,20,20,0,0,20,0,0,1000,1802.772537,False,20.52281872,MN52NI29SI19,0.490592303,1197.227463,Mn30 Ni20 Si20 V20 Fe10 
240,25,0,0,0,35,25,0,0,0,15,0,0,0,0,0,0,1000,342.5929907,False,0.418769604,C15_LAVES,0.556770714,1092.142149,Fe35 Al25 Hf25 Ni15 
247,0,0,0,15,0,35,0,0,25,0,0,0,25,0,0,0,1000,640.3650985,False,34.99310051,BCC_B2#2,0.572339953,1159.727064,Hf35 Nb25 Ti25 Cu15 
249,0,0,0,0,0,0,10,0,0,45,30,0,0,0,0,15,1000,515.0012257,False,5.489390185,MN6NI16SI7,0.472184208,980.3029652,Ni45 Si30 Zr15 Mn10 
250,0,10,0,30,10,0,0,0,45,0,0,0,0,0,0,5,1000,675.2200806,False,29.35313831,MU_PHASE,0.397817448,969.1686618,Nb45 Cu30 Co10 Fe10 Zr5 
251,0,45,0,0,0,0,30,0,15,0,0,10,0,0,0,0,1000,227.6219005,False,32.58176961,C14_LAVES,0.731620282,1033.7637,Co45 Mn30 Nb15 Ta10 
252,0,0,0,0,0,10,35,0,15,40,0,0,0,0,0,0,1000,228.894189,False,8.624557184,C14_LAVES,0.49147932,831.5478083,Ni40 Mn35 Nb15 Hf10 
253,0,5,0,10,0,0,0,0,25,35,0,25,0,0,0,0,1000,638.065192,False,10.60270116,MU_PHASE,0.675220179,1094.073779,Ni35 Nb25 Ta25 Cu10 Co5 
256,0,25,30,0,0,0,0,0,0,10,0,0,0,35,0,0,1000,190.3267771,False,8.344961836,BCC_B2,1.0,1268.690723,V35 Cr30 Co25 Ni10 
257,40,0,0,0,0,25,0,0,20,0,0,0,15,0,0,0,1000,104.2115496,False,4.887263266,BCC_B2,0.67860036,1369.701804,Al40 Hf25 Nb20 Ti15 
259,0,0,0,0,20,0,10,0,15,0,0,0,0,20,0,35,1000,182.1530365,False,74.38138843,C14_LAVES,0.479306929,979.1655723,Zr35 Fe20 V20 Nb15 Mn10 
260,30,0,0,0,10,30,0,0,0,0,0,0,0,0,0,30,1000,262.327244,False,1.788404605,AL2ZR3,0.649004008,1153.227982,Al30 Hf30 Zr30 Fe10 
264,0,0,45,0,0,0,15,0,0,25,0,0,0,15,0,0,1000,276.9345802,False,5.474092181,BCC_B2,1.0,1269.593224,Cr45 Ni25 Mn15 V15 