,Al,Co,Cr,Cu,Fe,Hf,Mn,Mo,Nb,Ni,Si,Ta,Ti,V,W,Zr,T (C),freeze_range,literature,mass_change,max_phase,max_phase_fraction,solidus,composition
768,0,0,0,25,0,0,0,0,0,0,0,40,15,20,0,0,1000,1062.780335,False,31.61091956,BCC_B2,0.635954449,882.5698724,Ta40 Cu25 V20 Ti15 
769,0,0,0,15,0,25,15,0,35,10,0,0,0,0,0,0,1000,870.5004725,False,15.265784,BCC_B2,0.330510912,870.8474971,Nb35 Hf25 Cu15 Mn15 Ni10 
770,0,10,0,25,0,45,0,0,0,0,0,0,0,20,0,0,1000,581.1716073,False,33.88460482,NITI2,0.299470786,973.6237214,Hf45 Cu25 V20 Co10 
771,0,10,45,25,0,0,0,0,0,0,0,0,15,0,0,5,1000,532.5955018,False,5.584156594,C15_LAVES,0.532155761,902.1341282,Cr45 Cu25 Ti15 Co10 Zr5 
773,0,30,0,0,5,10,20,0,35,0,0,0,0,0,0,0,1000,249.9434772,False,35.19863565,C14_LAVES,0.84198426,1231.046777,Nb35 Co30 Mn20 Hf10 Fe5 
774,0,0,0,45,20,0,25,0,0,0,0,0,0,0,0,10,1000,368.906712,False,34.63604214,FCC_L12#2,0.654024205,862.7549504,Cu45 Mn25 Fe20 Zr10 
775,30,5,0,25,0,0,30,0,0,0,0,0,0,10,0,0,1000,378.8565576,False,5.193171711,BCC_B2#3,0.603866031,959.401832,Al30 Mn30 Cu25 V10 Co5 
776,0,0,30,10,0,0,0,0,0,35,0,15,0,0,0,10,1000,315.7405162,False,2.421362292,C14_LAVES,0.502386061,1073.013078,Ni35 Cr30 Ta15 Cu10 Zr10 
777,20,0,0,0,0,0,10,0,0,0,0,25,15,30,0,0,1000,331.8873498,False,7.079183739,BCC_B2,0.838808316,1317.4441,V30 Ta25 Al20 Ti15 Mn10 
778,30,0,10,0,30,0,0,0,0,0,0,0,10,20,0,0,1000,270.5833746,False,2.229703732,BCC_B2#2,0.769262875,1173.840232,Al30 Fe30 V20 Cr10 Ti10 
779,0,0,0,0,45,20,15,0,0,0,0,5,0,0,0,15,1000,429.2359355,False,16.22752711,C14_LAVES,1.0,1294.692676,Fe45 Hf20 Mn15 Zr15 Ta5 
781,0,0,15,20,25,0,0,0,0,0,0,10,0,0,0,30,1000,729.0105953,False,9.169316902,C15_LAVES,0.556125136,884.9643911,Zr30 Fe25 Cu20 Cr15 Ta10 
782,0,25,0,0,30,0,0,0,0,10,5,30,0,0,0,0,1000,582.7183129,False,11.1581955,C14_LAVES,0.906058675,991.1536332,Fe30 Ta30 Co25 Ni10 Si5 
784,0,0,0,0,0,25,15,0,40,0,0,0,0,0,0,20,1000,401.525112,False,39.78594843,BCC_B2#2,0.85956987,1384.923064,Nb40 Hf25 Zr20 Mn15 
785,10,0,40,0,0,0,5,0,15,0,0,0,0,0,0,30,1000,433.674302,False,16.89839625,C14_LAVES,0.829422459,1349.802329,Cr40 Zr30 Nb15 Al10 Mn5 
786,0,40,0,0,0,0,15,0,10,0,0,35,0,0,0,0,1000,185.7358525,False,19.05589857,MU_PHASE,0.572085024,1240.291489,Co40 Ta35 Mn15 Nb10 
787,0,10,0,0,0,0,0,0,40,10,0,0,0,0,0,40,1000,806.7550887,False,20.73797279,C16_THETA,0.539937365,1057.243407,Nb40 Zr40 Co10 Ni10 
788,0,0,25,20,15,0,10,0,0,30,0,0,0,0,0,0,1000,150.2169265,False,1.994186439,FCC_L12#2,0.832127783,1070.096083,Ni30 Cr25 Cu20 Fe15 Mn10 
790,15,0,0,0,0,0,40,0,0,25,0,20,0,0,0,0,1000,569.6358643,False,1.446692395,C14_LAVES,0.477782139,942.1601356,Mn40 Ni25 Ta20 Al15 
793,0,0,0,30,25,30,10,0,0,0,5,0,0,0,0,0,1000,582.9064016,False,29.04222693,C14_LAVES,0.534156726,916.0109468,Cu30 Hf30 Fe25 Mn10 Si5 
795,0,15,0,0,0,35,0,0,0,0,20,0,0,0,0,30,1000,543.4719271,False,21.51663169,C16_THETA,0.507289222,1553.385813,Hf35 Zr30 Si20 Co15 
797,35,0,0,0,0,10,15,0,0,0,0,20,0,20,0,0,1000,198.1747395,False,3.156790021,BCC_B2,0.510904384,1292.517904,Al35 Ta20 V20 Mn15 Hf10 
798,10,0,0,0,0,0,0,0,35,0,0,0,20,35,0,0,1000,123.6860306,False,44.15356222,BCC_B2,1.0,1701.25446,Nb35 V35 Ti20 Al10 
799,0,0,10,25,0,25,0,0,10,30,0,0,0,0,0,0,1000,383.1888097,False,4.262230907,BCC_B2#2,0.424999924,1068.193419,Ni30 Cu25 Hf25 Cr10 Nb10 
800,10,45,0,5,0,0,0,0,0,0,30,0,10,0,0,0,1000,620.6571499,False,9.071604218,BCC_B2#2,0.538938642,940.9266496,Co45 Si30 Al10 Ti10 Cu5 
802,15,0,0,0,0,0,40,0,0,10,30,5,0,0,0,0,1000,237.8023297,False,1.430203696,M5SI3_D88,0.611414537,935.291294,Mn40 Si30 Al15 Ni10 Ta5 
807,0,15,0,0,0,0,20,0,0,0,0,35,0,20,0,10,1000,432.3567069,False,29.48475548,C16_THETA,0.337064004,1089.940641,Ta35 Mn20 V20 Co15 Zr10 
808,40,0,0,0,25,0,10,0,0,0,0,10,15,0,0,0,1000,130.9804791,False,2.265293999,C14_LAVES,0.648406548,1186.062205,Al40 Fe25 Ti15 Mn10 Ta10 
809,45,10,20,0,0,20,0,0,0,0,5,0,0,0,0,0,1000,324.2971067,False,0.731577502,G_PHASE,0.387507153,1191.161052,Al45 Cr20 Hf20 Co10 Si5 
811,15,20,0,0,0,0,0,0,5,45,0,0,0,0,0,15,1000,212.6383969,False,0.871249115,NI7ZR2,0.574017389,1123.219301,Ni45 Co20 Al15 Zr15 Nb5 
812,20,0,0,0,0,0,0,0,30,0,0,25,0,20,0,5,1000,679.8753525,False,12.40704162,BCC_B2,0.674937938,1358.903661,Nb30 Ta25 Al20 V20 Zr5 
813,0,0,0,0,0,30,0,0,0,20,0,15,30,5,0,0,1000,247.1950204,False,13.58997538,C16_THETA,0.579934692,969.5053938,Hf30 Ti30 Ni20 Ta15 V5 
814,0,0,0,45,0,15,15,0,0,0,0,5,20,0,0,0,1000,874.2382075,False,20.34633097,CU51HF14,0.436954355,793.3975563,Cu45 Ti20 Hf15 Mn15 Ta5 
817,35,0,10,0,0,25,0,0,0,15,0,0,0,0,0,15,1000,794.5610504,False,0.66316089,C14_LAVES,0.447677618,852.0575422,Al35 Hf25 Ni15 Zr15 Cr10 
818,0,30,0,0,0,0,5,0,0,0,10,35,20,0,0,0,1000,644.7882399,False,19.39551458,MU_PHASE,0.414719484,1096.292373,Ta35 Co30 Ti20 Si10 Mn5 
819,0,0,15,0,0,40,0,0,10,0,25,0,10,0,0,0,1000,869.1148834,False,9.180654743,C16_THETA,0.571668086,1162.797445,Hf40 Si25 Cr15 Nb10 Ti10 
822,10,0,10,10,45,0,25,0,0,0,0,0,0,0,0,0,1000,739.9879032,False,4.728415232,BCC_B2#2,0.736562307,940.3448978,Fe45 Mn25 Al10 Cr10 Cu10 
823,0,25,0,30,0,0,0,0,0,15,0,30,0,0,0,0,1000,507.1849605,False,10.44315067,MU_PHASE,0.505778457,1090.803817,Cu30 Ta30 Co25 Ni15 
824,0,0,0,0,20,0,0,0,30,0,0,25,0,25,0,0,1000,496.6839269,False,49.13759367,BCC_B2,1.0,1463.415772,Nb30 Ta25 V25 Fe20 
825,0,0,0,0,0,10,0,0,0,20,40,0,0,0,0,30,1000,972.8935103,False,8.145773533,MSI_B27,0.525,1100.45801,Si40 Zr30 Ni20 Hf10 
826,15,0,0,15,0,0,0,0,35,0,0,0,30,5,0,0,1000,916.1200862,False,22.05799989,O_PHASE,0.436945225,806.0232971,Nb35 Ti30 Al15 Cu15 V5 
827,15,25,0,0,0,0,0,0,0,40,0,0,0,20,0,0,1000,35.63811052,False,2.112640046,FCC_L12#2,0.864210178,1316.296104,Ni40 Co25 V20 Al15 
830,15,25,0,0,0,0,0,0,0,0,0,0,15,0,0,45,1000,272.4782404,False,6.28781317,BCC_B2#2,0.437308849,716.0702701,Zr45 Co25 Al15 Ti15 
831,0,0,0,10,0,10,40,0,0,0,0,30,0,0,0,10,1000,827.6867634,False,16.30426316,MNTA,0.573885888,726.7251559,Mn40 Ta30 Cu10 Hf10 Zr10 
832,0,0,0,20,10,0,0,0,0,0,0,45,0,0,0,25,1000,973.1259141,False,18.29963213,BCC_B2,0.327631361,909.7802898,Ta45 Zr25 Cu20 Fe10 
834,0,0,0,15,0,0,35,0,0,0,0,10,0,20,0,20,1000,466.34787,False,41.71030611,C14_LAVES,0.444159673,790.6440956,Mn35 V20 Zr20 Cu15 Ta10 
836,0,15,45,0,0,0,0,0,0,0,30,0,10,0,0,0,1000,646.0482435,False,6.713010014,CR3SI_A15,0.481509171,986.919887,Cr45 Si30 Co15 Ti10 
841,15,0,0,35,0,30,0,0,0,0,0,0,0,0,0,20,1000,283.1448117,False,6.429461901,CU10HF7,0.523076917,821.6276629,Cu35 Hf30 Zr20 Al15 
842,0,0,45,10,0,0,20,0,15,0,0,0,0,10,0,0,1000,532.6043828,False,37.36774717,BCC_B2,0.453008976,924.900285,Cr45 Mn20 Nb15 Cu10 V10 
844,5,10,45,0,0,0,0,0,0,0,30,0,0,10,0,0,1000,238.2667286,False,13.94805979,CR3SI_A15,0.514293148,1353.372359,Cr45 Si30 Co10 V10 Al5 
848,0,0,0,0,10,15,45,0,0,30,0,0,0,0,0,0,1000,222.0873555,False,9.987894385,FCC_L12,0.503628459,892.6396051,Mn45 Ni30 Hf15 Fe10 
850,0,0,5,15,0,10,25,0,0,0,45,0,0,0,0,0,1000,675.5484477,False,27.64009799,FESI_B20,0.278676509,807.3197149,Si45 Mn25 Cu15 Hf10 Cr5 
851,40,0,0,15,0,0,30,0,0,0,0,0,0,15,0,0,1000,446.7784624,False,4.79138747,BCC_B2,1.0,976.9325689,Al40 Mn30 Cu15 V15 
853,0,0,0,0,15,0,0,0,0,35,0,10,5,0,0,35,1000,442.8866625,False,6.664181948,BCC_B2#2,0.695715124,1075.82647,Ni35 Zr35 Fe15 Ta10 Ti5 
855,10,0,0,0,0,0,30,0,0,0,0,0,40,20,0,0,1000,72.07775028,False,27.15449714,BCC_B2,1.0,1249.925479,Ti40 Mn30 V20 Al10 
857,30,30,0,0,0,0,0,0,20,0,15,0,5,0,0,0,1000,132.2303724,False,5.140155879,BCC_B2#2,0.502844103,1418.098293,Al30 Co30 Nb20 Si15 Ti5 
859,0,0,0,0,25,0,15,0,0,45,0,5,10,0,0,0,1000,217.0492038,False,4.61593469,FCC_L12,0.755000645,937.3763729,Ni45 Fe25 Mn15 Ti10 Ta5 
861,0,0,0,0,0,10,0,0,25,0,35,0,0,30,0,0,1000,176.6075887,False,51.17402986,TA5SI3_D8L,0.301380729,1792.979608,Si35 V30 Nb25 Hf10 
862,5,0,0,0,40,0,0,0,0,25,20,0,10,0,0,0,1000,289.7762966,False,4.13117732,BCC_B2#2,0.630497131,1214.008291,Fe40 Ni25 Si20 Ti10 Al5 
863,0,0,25,0,0,45,0,0,0,0,0,20,10,0,0,0,1000,148.2230129,False,7.792378068,BCC_B2#2,0.682833278,1531.816004,Hf45 Cr25 Ta20 Ti10 
870,40,0,0,15,20,0,0,0,0,0,0,0,20,5,0,0,1000,166.8680226,False,4.539140067,BCC_B2,0.559718478,954.3652356,Al40 Fe20 Ti20 Cu15 V5 
871,5,25,0,40,0,10,0,0,0,0,0,0,0,20,0,0,1000,453.0689354,False,21.25453999,FCC_L12,0.424456741,1065.57479,Cu40 Co25 V20 Hf10 Al5 
872,0,0,40,5,0,0,0,0,0,25,0,0,10,20,0,0,1000,441.307141,False,5.33863947,BCC_B2,0.627902107,1095.997316,Cr40 Ni25 V20 Ti10 Cu5 
873,40,0,0,10,15,0,0,0,35,0,0,0,0,0,0,0,1000,537.7910413,False,3.347364936,C14_LAVES,0.636456035,1001.848929,Al40 Nb35 Fe15 Cu10 
874,0,0,0,10,0,0,5,0,15,0,0,45,0,25,0,0,1000,1337.658414,False,47.28061654,BCC_B2,0.880988821,928.6134867,Ta45 V25 Nb15 Cu10 Mn5 
875,0,0,0,35,20,0,5,0,0,0,0,0,30,10,0,0,1000,401.8921505,False,49.80101733,C14_LAVES,0.434926881,815.1940267,Cu35 Ti30 Fe20 V10 Mn5 
877,0,35,0,0,20,0,0,0,0,0,35,10,0,0,0,0,1000,423.3507074,False,24.6277124,FESI_B20,0.448818192,893.1385783,Co35 Si35 Fe20 Ta10 
878,0,15,0,20,0,35,30,0,0,0,0,0,0,0,0,0,1000,607.8116599,False,30.12696979,C14_LAVES,0.346412959,783.0831388,Hf35 Mn30 Cu20 Co15 
879,0,15,0,0,15,15,0,0,10,0,0,0,0,45,0,0,1000,113.9518999,False,29.70694076,BCC_B2,0.705688049,1437.609011,V45 Co15 Fe15 Hf15 Nb10 
880,0,0,10,0,0,0,40,0,0,30,10,0,10,0,0,0,1000,2131.684391,False,6.452178685,MN3NI2SI,0.56039726,868.3156088,Mn40 Ni30 Cr10 Si10 Ti10 
882,30,0,0,0,25,15,0,0,0,0,0,0,30,0,0,0,1000,229.7886271,False,1.647147737,C14_LAVES,0.736567273,983.7205969,Al30 Ti30 Fe25 Hf15 
883,0,0,0,20,30,0,0,0,15,0,0,0,35,0,0,0,1000,154.4145088,False,38.00887085,T3_CU4TI3,0.604585617,1165.378449,Ti35 Fe30 Cu20 Nb15 
884,20,0,0,45,5,0,15,0,0,0,0,15,0,0,0,0,1000,590.135848,False,3.083388056,BCC_B2,0.649703628,957.2488015,Cu45 Al20 Mn15 Ta15 Fe5 
885,10,0,0,0,0,0,35,0,0,5,25,25,0,0,0,0,1000,348.6236772,False,4.496116422,M5SI3_D88,0.436084551,910.3968537,Mn35 Si25 Ta25 Al10 Ni5 
886,0,0,0,0,35,10,40,0,0,15,0,0,0,0,0,0,1000,263.2638313,False,11.62881608,FCC_L12,0.701201453,1015.626716,Mn40 Fe35 Ni15 Hf10 
890,0,0,0,35,0,0,0,0,10,0,10,0,0,25,0,20,1000,715.5619306,False,42.8099294,CU51ZR14,0.444513696,995.9316369,Cu35 V25 Zr20 Nb10 Si10 
891,0,15,0,0,40,10,0,0,10,0,0,25,0,0,0,0,1000,349.295753,False,16.17226605,MU_PHASE,0.661601,1500.493153,Fe40 Ta25 Co15 Hf10 Nb10 
892,0,0,10,0,0,0,40,0,10,0,0,0,0,0,0,40,1000,243.434835,False,25.00150434,C14_LAVES,1.0,1246.606542,Mn40 Zr40 Cr10 Nb10 
893,0,0,0,15,0,0,0,0,0,0,0,30,0,15,0,40,1000,975.0449981,False,32.31723059,BCC_B2,0.463665055,986.2043328,Zr40 Ta30 Cu15 V15 
895,0,0,0,15,0,30,0,0,0,0,10,15,30,0,0,0,1000,754.6856481,False,21.1211816,MOSI2_C11B,0.449300967,1135.940635,Hf30 Ti30 Cu15 Ta15 Si10 
896,10,0,0,0,0,25,20,0,0,0,0,0,0,30,0,15,1000,51.68027367,False,21.49145168,BCC_B2,0.928182083,1186.712842,V30 Hf25 Mn20 Zr15 Al10 
897,0,25,20,0,0,0,0,0,40,15,0,0,0,0,0,0,1000,151.1321413,False,5.20699146,C14_LAVES,0.995635313,1398.948274,Nb40 Co25 Cr20 Ni15 
898,0,15,0,0,0,0,0,0,25,35,0,25,0,0,0,0,1000,263.1561122,False,10.55414595,MU_PHASE,0.956359651,1550.365658,Ni35 Nb25 Ta25 Co15 
900,0,30,0,20,0,0,0,0,5,0,25,20,0,0,0,0,1000,585.676855,False,17.09653709,C14_LAVES,0.370061615,875.1526107,Co30 Si25 Cu20 Ta20 Nb5 
901,15,0,0,15,25,0,0,0,0,0,0,45,0,0,0,0,1000,681.3785812,False,2.18053183,MU_PHASE,0.824859174,1048.121773,Ta45 Fe25 Al15 Cu15 
905,45,0,20,0,15,0,0,0,0,10,0,0,0,0,0,10,1000,284.1399031,False,0.289364778,BCC_B2#2,0.446815597,1238.730941,Al45 Cr20 Fe15 Ni10 Zr10 
906,40,0,5,0,0,0,10,0,0,0,0,25,0,20,0,0,1000,215.9181107,False,2.598575818,BCC_B2,0.559045237,1346.706103,Al40 Ta25 V20 Mn10 Cr5 
907,0,20,0,0,0,0,40,0,0,20,0,0,0,20,0,0,1000,16.94190559,False,20.50251366,FCC_L12,1.0,1102.310071,Mn40 Co20 Ni20 V20 
909,0,0,0,0,15,15,0,0,0,0,15,15,0,0,0,40,1000,1090.443429,False,17.75311209,C16_THETA,0.450378993,1063.146011,Zr40 Fe15 Hf15 Si15 Ta15 
910,20,0,0,0,20,0,0,0,0,0,20,40,0,0,0,0,1000,391.8847508,False,1.362012012,C14_LAVES,0.784060393,1233.033963,Ta40 Al20 Fe20 Si20 
914,0,0,35,5,0,0,0,0,0,0,40,0,10,10,0,0,1000,750.1326749,False,20.83553822,M6SI5,0.519211761,949.7117961,Si40 Cr35 Ti10 V10 Cu5 
915,35,30,5,20,0,0,0,0,0,0,0,10,0,0,0,0,1000,714.2999604,False,1.056563869,HEUSLER_L21,0.47297203,1005.426257,Al35 Co30 Cu20 Ta10 Cr5 
916,30,0,0,15,0,0,0,0,0,0,35,15,0,0,0,5,1000,909.5400039,False,0.805065786,C15_LAVES,0.431331017,639.6592969,Si35 Al30 Cu15 Ta15 Zr5 
917,0,0,0,10,0,10,0,0,40,40,0,0,0,0,0,0,1000,369.9348437,False,10.11232009,MU_PHASE,0.410950369,1087.174873,Nb40 Ni40 Cu10 Hf10 
919,0,0,0,30,0,30,0,0,30,0,0,0,0,10,0,0,1000,848.223256,False,45.33748541,BCC_B2,0.406034007,977.2434401,Cu30 Hf30 Nb30 V10 
920,25,15,0,0,0,0,0,0,0,5,15,0,0,40,0,0,1000,145.782996,False,1.229018994,BCC_B2#2,0.664635349,1447.362382,V40 Al25 Co15 Si15 Ni5 
921,0,5,30,0,0,0,0,0,0,0,0,10,35,0,0,20,1000,459.3540647,False,14.67335957,BCC_B2#2,0.530770902,935.2913421,Ti35 Cr30 Zr20 Ta10 Co5 
923,0,0,0,0,40,10,0,0,0,0,0,30,0,15,0,5,1000,65.52622713,False,18.73622746,C15_LAVES,0.998942835,1556.756006,Fe40 Ta30 V15 Hf10 Zr5 
924,20,40,0,0,20,0,0,0,0,0,0,0,20,0,0,0,1000,202.0317809,False,3.418257079,BCC_B2#3,1.0,1129.186527,Co40 Al20 Fe20 Ti20 
925,20,35,0,0,0,0,0,0,35,0,0,0,10,0,0,0,1000,707.0270975,False,7.240255598,C14_LAVES,0.730015002,1077.366782,Co35 Nb35 Al20 Ti10 
926,0,0,15,25,0,0,0,0,15,0,45,0,0,0,0,0,1000,1117.444646,False,19.85158074,M6SI5,0.359066312,858.6667657,Si45 Cu25 Cr15 Nb15 
928,0,0,35,0,0,10,0,0,40,0,0,0,15,0,0,0,1000,195.3537141,False,17.31044535,BCC_B2,0.643100778,1490.548558,Nb40 Cr35 Ti15 Hf10 
929,0,0,20,20,0,10,0,0,0,15,0,0,0,35,0,0,1000,476.6591571,False,7.081067753,BCC_B2,0.571740689,1090.807024,V35 Cr20 Cu20 Ni15 Hf10 
930,20,0,5,0,0,15,0,0,0,0,15,45,0,0,0,0,1000,755.2280738,False,2.012151096,SIGMA,0.504561608,1516.6002,Ta45 Al20 Hf15 Si15 Cr5 
936,0,0,20,10,15,0,0,0,0,30,25,0,0,0,0,0,1000,161.9030408,False,1.666292567,CO2SI_C23,0.444880799,1055.574631,Ni30 Si25 Cr20 Fe15 Cu10 
937,15,35,20,0,0,0,5,0,25,0,0,0,0,0,0,0,1000,564.8324754,False,6.442522826,C14_LAVES,0.751847658,1268.486551,Co35 Nb25 Cr20 Al15 Mn5 
941,0,0,5,0,20,0,0,0,0,0,0,0,15,25,0,35,1000,206.1584547,False,47.5877667,C15_LAVES,0.755067469,1014.560234,Zr35 V25 Fe20 Ti15 Cr5 
944,0,45,20,0,0,0,0,0,0,0,0,10,25,0,0,0,1000,151.148248,False,10.18776703,C15_LAVES,0.930927148,1344.917221,Co45 Ti25 Cr20 Ta10 
946,0,0,0,0,0,20,0,0,10,35,0,35,0,0,0,0,1000,734.6542017,False,6.263963581,C16_THETA,0.497350396,1044.629902,Ni35 Ta35 Hf20 Nb10 
947,0,10,0,20,35,0,0,0,15,0,20,0,0,0,0,0,1000,414.0531368,False,36.95028952,BCC_B2#2,0.58371075,1002.628864,Fe35 Cu20 Si20 Nb15 Co10 
949,10,40,0,0,0,30,5,0,0,0,0,0,0,15,0,0,1000,249.3872813,False,17.5751598,C14_LAVES,0.577487617,1510.395805,Co40 Hf30 V15 Al10 Mn5 
950,10,0,0,0,0,0,0,0,0,0,35,15,35,5,0,0,1000,535.7959266,False,13.24426778,ZR5SI4_TP36,0.626256717,1339.191113,Si35 Ti35 Ta15 Al10 V5 
951,10,0,5,0,0,0,0,0,45,0,0,0,10,0,0,30,1000,417.4872722,False,24.02075062,BCC_B2,1.0,1526.711337,Nb45 Zr30 Al10 Ti10 Cr5 
953,0,0,40,15,0,0,0,0,20,25,0,0,0,0,0,0,1000,342.7668884,False,3.800611966,C14_LAVES,0.667841409,1115.329353,Cr40 Ni25 Nb20 Cu15 
955,0,15,20,0,0,0,40,0,5,0,0,0,20,0,0,0,1000,221.3193055,False,8.590210991,C14_LAVES,0.689775186,1108.750919,Mn40 Cr20 Ti20 Co15 Nb5 
956,30,0,0,0,0,0,0,0,35,25,10,0,0,0,0,0,1000,219.4727186,False,0.636297402,C14_LAVES,0.516122977,1447.729164,Nb35 Al30 Ni25 Si10 
958,0,0,20,0,20,35,10,0,0,0,0,0,15,0,0,0,1000,542.18262,False,8.606844308,C14_LAVES,0.726405965,1172.196194,Hf35 Cr20 Fe20 Ti15 Mn10 
959,0,0,35,0,40,0,0,0,0,15,0,0,10,0,0,0,1000,281.0207296,False,1.222023038,BCC_B2,0.643763743,1102.655669,Fe40 Cr35 Ni15 Ti10 
962,10,0,10,0,0,0,0,0,0,0,0,40,5,0,0,35,1000,685.5530133,False,6.432354831,BCC_B2,0.402946956,1344.490527,Ta40 Zr35 Al10 Cr10 Ti5 
963,40,0,0,20,0,15,0,0,0,0,0,10,0,15,0,0,1000,886.0414474,False,2.845982648,ALZR,0.246187755,600.0,Al40 Cu20 Hf15 V15 Ta10 
964,0,0,15,0,0,0,0,0,10,0,10,25,0,40,0,0,1000,273.7534745,False,22.16120911,BCC_B2,0.600854946,1543.047957,V40 Ta25 Cr15 Nb10 Si10 
965,0,25,0,0,0,25,0,0,25,0,0,25,0,0,0,0,1000,816.3796058,False,28.59695975,BCC_B2,0.501791644,1514.854726,Co25 Hf25 Nb25 Ta25 
967,0,0,20,0,0,0,0,0,0,15,0,40,0,0,0,25,1000,506.9231623,False,3.285580024,C16_THETA,0.701064986,1291.340875,Ta40 Zr25 Cr20 Ni15 
969,35,0,10,0,0,0,0,0,30,0,0,0,20,0,0,5,1000,49.72501264,False,3.23052854,BCC_B2#2,0.785995885,1640.136072,Al35 Nb30 Ti20 Cr10 Zr5 
970,25,0,35,0,0,5,10,0,0,25,0,0,0,0,0,0,1000,334.7191035,False,0.376691727,BCC_B2#2,0.470200995,1189.645672,Cr35 Al25 Ni25 Mn10 Hf5 
972,0,0,0,0,10,0,0,0,30,30,0,0,0,0,0,30,1000,508.5927879,False,14.24254251,NIZR,0.592978223,1042.821232,Nb30 Ni30 Zr30 Fe10 
973,15,0,0,15,25,0,0,0,0,0,45,0,0,0,0,0,1000,435.5805616,False,1.533203066,FESI2_L,0.654266062,797.9906665,Si45 Fe25 Al15 Cu15 
975,0,15,15,0,0,25,0,0,0,5,40,0,0,0,0,0,1000,621.585372,False,5.074917952,C14_LAVES,0.684713506,970.821194,Si40 Hf25 Co15 Cr15 Ni5 
978,30,0,0,0,0,0,15,0,0,25,0,10,0,20,0,0,1000,171.2119273,False,1.459793365,BCC_B2,0.482479724,1296.691232,Al30 Ni25 V20 Mn15 Ta10 
979,15,0,0,0,0,30,35,0,20,0,0,0,0,0,0,0,1000,166.792371,False,8.622172882,C14_LAVES,0.695811144,1398.149623,Mn35 Hf30 Nb20 Al15 
980,10,0,0,0,0,5,0,0,20,0,0,0,40,25,0,0,1000,173.1589994,False,38.11692629,BCC_B2,1.0,1473.32399,Ti40 V25 Nb20 Al10 Hf5 
982,0,0,0,15,0,10,35,0,0,0,40,0,0,0,0,0,1000,693.368488,False,34.25201913,M5SI3_D88,0.602621073,812.3900545,Si40 Mn35 Cu15 Hf10 
985,35,0,0,15,0,0,0,0,0,0,0,15,35,0,0,0,1000,779.6649861,False,1.641313717,BCC_B2,0.472212404,961.0913537,Al35 Ti35 Cu15 Ta15 
986,0,0,30,0,0,0,35,0,20,15,0,0,0,0,0,0,1000,470.1133751,False,4.954076097,C14_LAVES,0.583032866,997.9276615,Mn35 Cr30 Nb20 Ni15 
989,0,0,0,15,30,25,0,0,0,0,0,0,30,0,0,0,1000,414.2341524,False,21.13202308,MOSI2_C11B,0.430614345,901.7932476,Fe30 Ti30 Hf25 Cu15 
991,45,0,0,0,0,0,35,0,0,0,10,0,0,10,0,0,1000,240.4898318,False,4.426048616,BCC_B2#2,1.0,1004.435453,Al45 Mn35 Si10 V10 
993,15,0,0,0,0,0,15,0,0,0,0,10,45,0,0,15,1000,404.6468754,False,9.797993163,BCC_B2#2,0.760443098,1169.190962,Ti45 Al15 Mn15 Zr15 Ta10 
994,20,0,10,30,0,30,0,0,0,0,0,0,0,10,0,0,1000,925.6104671,False,2.502069022,CU10HF7,0.263851277,600.0,Cu30 Hf30 Al20 Cr10 V10 
995,30,5,0,0,30,0,0,0,0,0,0,0,10,25,0,0,1000,362.4587711,False,4.030681781,BCC_B2#3,0.75260201,1049.338832,Al30 Fe30 V25 Ti10 Co5 
996,30,0,0,25,0,0,0,0,15,0,0,0,0,0,0,30,1000,859.3701589,False,8.128209302,BCC_B2,0.497190237,751.8124286,Al30 Zr30 Cu25 Nb15 
997,0,0,0,0,0,0,10,0,0,25,0,0,45,20,0,0,1000,134.4597099,False,17.70300364,BCC_B2#2,0.695387966,960.0964726,Ti45 Ni25 V20 Mn10 
999,0,30,0,10,0,0,0,0,0,0,0,0,35,0,0,25,1000,488.9128953,False,35.42040723,BCC_B2#2,0.575597203,748.8765784,Ti35 Co30 Zr25 Cu10 
1000,0,0,0,5,0,20,0,0,15,15,0,45,0,0,0,0,1000,1355.302793,False,11.36806087,BCC_B2,0.587495192,969.9835891,Ta45 Hf20 Nb15 Ni15 Cu5 
1001,0,0,20,40,0,0,5,0,15,0,0,0,20,0,0,0,1000,656.4403257,False,18.06295447,C14_LAVES,0.376239525,837.1816774,Cu40 Cr20 Ti20 Nb15 Mn5 
1003,10,40,0,0,0,0,0,0,0,0,5,25,0,0,0,20,1000,377.0654402,False,7.954570053,C14_LAVES,0.679346619,1284.619848,Co40 Ta25 Zr20 Al10 Si5 
1007,0,20,0,0,15,20,0,0,0,0,0,0,0,45,0,0,1000,43.03361708,False,36.14482232,BCC_B2,0.603827102,1519.027,V45 Co20 Hf20 Fe15 
1008,0,0,5,0,0,10,0,0,0,0,35,0,0,20,0,30,1000,536.5035449,False,30.7714511,M3SI2_D5A,0.666666621,1643.04967,Si35 Zr30 V20 Hf10 Cr5 
1011,0,0,20,45,0,0,0,0,0,0,20,0,15,0,0,0,1000,764.437903,False,8.284110621,FCC_L12,0.460926879,1049.135618,Cu45 Cr20 Si20 Ti15 
1012,20,20,0,15,0,0,0,0,0,0,15,0,30,0,0,0,1000,712.6399181,False,3.824353972,M5SI3_D88,0.399431622,1028.988238,Ti30 Al20 Co20 Cu15 Si15 
1013,0,35,10,0,0,0,0,0,0,0,0,0,30,20,0,5,1000,19.88135338,False,41.56446463,BCC_B2#3,0.674527899,1205.368233,Co35 Ti30 V20 Cr10 Zr5 
1014,20,0,5,0,0,20,0,0,20,35,0,0,0,0,0,0,1000,556.2984061,False,1.258336058,HEUSLER_L21,0.558890073,1085.172785,Ni35 Al20 Hf20 Nb20 Cr5 
1015,0,0,0,25,40,0,0,0,0,5,0,0,10,20,0,0,1000,99.71326906,False,22.22261632,BCC_B2,0.471364291,1079.057432,Fe40 Cu25 V20 Ti10 Ni5 