,Al,Co,Cr,Cu,Fe,Hf,Mn,Mo,Nb,Ni,Si,Ta,Ti,V,W,Zr,T (C),freeze_range,literature,mass_change,max_phase,max_phase_fraction,solidus,composition
3842,0,25,0,0,0,0,20,0,0,30,0,15,0,10,0,0,1000,171.1382056,False,14.05611057,FCC_L12,0.656401597,1021.61088,Ni30 Co25 Mn20 Ta15 V10 
3845,0,0,0,15,0,0,0,0,25,0,5,0,35,0,0,20,1000,749.0689438,False,74.52766004,BCC_B2,0.483376095,866.771346,Ti35 Nb25 Zr20 Cu15 Si5 
3847,45,0,0,0,20,10,0,0,0,0,20,5,0,0,0,0,1000,678.4671335,False,1.238149037,MSI_B27,0.182979711,1014.732358,Al45 Fe20 Si20 Hf10 Ta5 
3849,15,40,0,5,0,30,0,0,0,0,0,0,0,0,0,10,1000,1106.020979,False,5.364090392,C14_LAVES,0.474616762,728.7967152,Co40 Hf30 Al15 Zr10 Cu5 
3850,0,10,45,10,0,0,0,0,0,0,0,0,0,35,0,0,1000,551.2949423,False,16.739828,BCC_B2,0.89936667,1081.661994,Cr45 V35 Co10 Cu10 
3852,0,0,0,25,0,30,0,0,0,0,0,0,30,10,0,5,1000,172.3621521,False,25.05643014,MOSI2_C11B,0.73001763,1023.043944,Hf30 Ti30 Cu25 V10 Zr5 
3856,0,0,0,0,0,40,0,0,0,10,40,0,0,0,0,10,1000,1158.425324,False,8.625816168,ZR5SI4_TP36,0.646875,1128.035207,Hf40 Si40 Ni10 Zr10 
3857,0,15,30,0,0,15,0,0,0,0,40,0,0,0,0,0,1000,593.0551925,False,7.513732195,C14_LAVES,0.45000175,976.1973882,Si40 Cr30 Co15 Hf15 
3858,0,0,0,0,0,0,15,0,20,15,0,30,0,20,0,0,1000,764.5053755,False,19.92652286,BCC_B2#2,0.627805976,1012.806098,Ta30 Nb20 V20 Mn15 Ni15 
3860,0,35,0,0,15,0,0,0,0,10,0,0,10,30,0,0,1000,63.3234035,False,21.3641654,FCC_L12,0.761255816,1043.144107,Co35 V30 Fe15 Ni10 Ti10 
3861,0,0,5,0,0,0,0,0,25,30,0,20,0,20,0,0,1000,310.7537518,False,16.64731867,MU_PHASE#2,0.601211537,1124.276954,Ni30 Nb25 Ta20 V20 Cr5 