,Al,Co,Cr,Cu,Fe,Hf,Mn,Mo,Nb,Ni,Si,Ta,Ti,V,W,Zr,T (C),freeze_range,literature,mass_change,max_phase,max_phase_fraction,solidus,composition
2308,30,15,10,0,0,0,0,0,0,0,0,0,0,10,0,35,1000,647.3856707,False,2.533292829,C14_LAVES,0.496122857,957.4492965,Zr35 Al30 Co15 Cr10 V10 
2309,0,20,0,20,0,45,0,0,0,15,0,0,0,0,0,0,1000,487.7703956,False,11.95793331,BCC_B2#2,0.666852388,999.8200009,Hf45 Co20 Cu20 Ni15 
2310,0,0,0,0,45,0,0,0,10,10,0,35,0,0,0,0,1000,288.8937393,False,7.923239568,MU_PHASE,0.677387688,1737.061636,Fe45 Ta35 Nb10 Ni10 
2311,0,0,0,20,0,10,0,0,30,0,0,0,0,35,0,5,1000,957.5390765,False,41.27476782,BCC_B2,0.65616444,763.5605284,V35 Nb30 Cu20 Hf10 Zr5 
2312,0,20,0,0,5,0,0,0,0,25,0,0,20,30,0,0,1000,74.24709505,False,16.47439039,FCC_L12,0.430255471,1051.08333,V30 Ni25 Co20 Ti20 Fe5 
2316,0,0,0,0,0,20,0,0,0,20,0,25,0,0,0,35,1000,1034.92995,False,8.129981961,C16_THETA,0.599340199,784.3878303,Zr35 Ta25 Hf20 Ni20 
2317,15,0,0,0,0,0,40,0,0,0,0,30,0,0,0,15,1000,224.2616038,False,5.267243418,C14_LAVES,0.6249526,1230.613543,Mn40 Ta30 Al15 Zr15 
2318,10,0,0,0,30,30,0,0,0,0,20,0,0,0,0,10,1000,947.6740267,False,6.576559519,M3SI2_D5A,0.407210253,1123.507909,Fe30 Hf30 Si20 Al10 Zr10 
2319,20,0,0,0,0,25,0,0,10,0,10,0,35,0,0,0,1000,214.2478884,False,3.447838629,BCC_B2#2,0.654208129,1225.144275,Ti35 Hf25 Al20 Nb10 Si10 
2320,0,15,25,0,0,0,10,0,0,0,10,40,0,0,0,0,1000,413.0992523,False,7.932916145,C14_LAVES,0.80421705,1170.77707,Ta40 Cr25 Co15 Mn10 Si10 
2322,0,0,0,15,10,0,25,0,0,45,0,0,5,0,0,0,1000,45.01697198,False,6.698775858,FCC_L12,1.0,1072.930568,Ni45 Mn25 Cu15 Fe10 Ti5 
2323,0,0,0,0,15,0,0,0,35,0,0,5,0,15,0,30,1000,646.007543,False,68.45024285,BCC_B2#2,0.614872825,1026.740176,Nb35 Zr30 Fe15 V15 Ta5 
2324,25,0,35,0,0,20,0,0,20,0,0,0,0,0,0,0,1000,452.3162443,False,4.038438071,C14_LAVES,0.854835854,1463.368401,Cr35 Al25 Hf20 Nb20 
2326,0,0,0,0,25,0,35,0,0,0,20,0,0,20,0,0,1000,321.7728348,False,65.96451266,BCC_B2,0.605653245,957.5011867,Mn35 Fe25 Si20 V20 
2328,0,30,0,0,0,15,0,0,0,0,10,45,0,0,0,0,1000,698.10098,False,19.71687007,C16_THETA,0.618248345,834.4967906,Ta45 Co30 Hf15 Si10 
2330,25,35,20,0,0,0,20,0,0,0,0,0,0,0,0,0,1000,67.66364803,False,1.868863037,BCC_B2#3,1.0,1335.947669,Co35 Al25 Cr20 Mn20 
2331,0,0,35,0,0,35,0,0,15,0,0,15,0,0,0,0,1000,113.4881665,False,15.3105703,C14_LAVES,0.514557912,1545.298939,Cr35 Hf35 Nb15 Ta15 
2332,0,25,40,0,0,15,0,0,0,20,0,0,0,0,0,0,1000,185.0385821,False,2.64518234,NI7ZR2,0.674255638,1349.759266,Cr40 Co25 Ni20 Hf15 
2333,45,0,0,0,0,0,0,0,20,25,0,0,0,0,0,10,1000,457.8194916,False,0.777229849,C14_LAVES,0.869089216,1332.486657,Al45 Ni25 Nb20 Zr10 
2335,20,0,15,0,0,45,0,0,0,0,0,0,0,20,0,0,1000,34.38275364,False,2.317001405,BCC_B2#2,0.62289777,1340.444175,Hf45 Al20 V20 Cr15 
2336,35,0,30,0,0,0,15,0,0,0,0,15,0,0,0,5,1000,343.0102331,False,0.97046567,BCC_B2#2,0.552319021,1216.640123,Al35 Cr30 Mn15 Ta15 Zr5 
2343,0,40,0,20,0,0,0,0,0,10,0,30,0,0,0,0,1000,483.8441029,False,11.49794322,C14_LAVES,0.626849235,1088.387857,Co40 Ta30 Cu20 Ni10 
2344,0,40,15,0,0,0,0,0,0,15,30,0,0,0,0,0,1000,257.4211031,False,3.620737788,CO2SI_C23,0.759270184,1120.786059,Co40 Si30 Cr15 Ni15 
2345,5,0,0,0,0,20,10,0,0,45,0,20,0,0,0,0,1000,459.9212154,False,4.287393908,NI11ZR9,0.383579868,883.0167073,Ni45 Hf20 Ta20 Mn10 Al5 
2346,0,15,0,0,0,0,0,0,15,45,0,25,0,0,0,0,1000,460.3293073,False,7.846108439,MU_PHASE,0.708791056,1330.046538,Ni45 Ta25 Co15 Nb15 
2349,0,0,10,0,35,0,0,0,0,15,0,40,0,0,0,0,1000,52.71688334,False,4.240766984,C14_LAVES,0.598138114,1684.648424,Ta40 Fe35 Ni15 Cr10 
2350,0,0,0,10,0,30,0,0,0,0,40,0,10,10,0,0,1000,1110.654887,False,27.24197097,ZR5SI4_TP36,0.563903674,974.6331309,Si40 Hf30 Cu10 Ti10 V10 
2351,10,0,15,0,0,0,0,0,0,35,0,0,0,0,0,40,1000,570.6996416,False,0.969665012,C14_LAVES,0.560170844,1161.741315,Zr40 Ni35 Cr15 Al10 
2352,0,0,0,35,10,40,0,0,0,0,15,0,0,0,0,0,1000,936.3749916,False,29.40121936,M3SI2_D5A,0.372052173,983.6022127,Hf40 Cu35 Si15 Fe10 
2354,0,0,0,0,0,0,0,0,10,5,40,0,20,0,0,25,1000,458.8272228,False,18.6441611,ZR5SI4_TP36,0.794498369,1748.863043,Si40 Zr25 Ti20 Nb10 Ni5 
2356,30,25,0,0,0,0,0,0,0,0,0,0,0,30,0,15,1000,193.8455717,False,7.165681839,BCC_B2#2,0.574440288,1281.363292,Al30 V30 Co25 Zr15 
2358,20,0,0,0,0,0,25,0,0,0,0,0,0,30,0,25,1000,308.1434032,False,9.84799367,BCC_B2,0.541953973,1153.322086,V30 Mn25 Zr25 Al20 
2359,0,0,0,40,30,0,0,0,0,20,0,0,10,0,0,0,1000,17.38395814,False,7.362240547,FCC_L12#2,0.641597882,1106.328024,Cu40 Fe30 Ni20 Ti10 
2361,0,0,15,0,25,30,0,0,0,20,0,0,0,10,0,0,1000,186.2943923,False,4.389035503,C15_LAVES,0.898354532,1417.411905,Hf30 Fe25 Ni20 Cr15 V10 
2362,0,0,10,0,0,0,0,0,15,0,45,10,20,0,0,0,1000,318.4742379,False,28.60851979,M6SI5,0.410830127,1689.344891,Si45 Ti20 Nb15 Cr10 Ta10 
2365,0,0,0,0,0,20,0,0,15,0,0,20,5,40,0,0,1000,384.8124775,False,35.87454751,BCC_B2,1.0,1591.370124,V40 Hf20 Ta20 Nb15 Ti5 
2366,5,30,0,0,0,0,35,0,0,20,0,0,0,0,0,10,1000,125.7894787,False,4.72958189,FCC_L12#2,0.653675035,945.2210552,Mn35 Co30 Ni20 Zr10 Al5 
2367,15,0,5,0,0,0,0,0,0,0,0,20,45,15,0,0,1000,313.0054501,False,5.05210985,BCC_B2,1.0,1571.201393,Ti45 Ta20 Al15 V15 Cr5 
2368,30,40,0,0,0,0,0,0,0,0,15,0,5,0,0,10,1000,213.7901641,False,2.109604788,BCC_B2#2,0.661492877,1335.834391,Co40 Al30 Si15 Zr10 Ti5 
2369,35,0,0,0,0,0,10,0,30,0,20,0,0,0,0,5,1000,811.9459017,False,2.670757814,TA5SI3_D8L,0.421232495,994.564459,Al35 Nb30 Si20 Mn10 Zr5 
2370,0,0,0,0,25,0,15,0,0,0,35,0,0,25,0,0,1000,502.0263291,False,67.33398285,M5SI3_D88,0.412868386,1047.242807,Si35 Fe25 V25 Mn15 
2371,0,0,30,0,0,5,20,0,0,0,0,15,30,0,0,0,1000,275.180683,False,11.32442914,C14_LAVES,0.75195792,1373.630563,Cr30 Ti30 Mn20 Ta15 Hf5 
2372,0,0,0,0,0,20,0,0,35,35,0,0,0,10,0,0,1000,565.8431958,False,20.35539094,FCC_L12,0.508897309,1057.346785,Nb35 Ni35 Hf20 V10 
2374,0,10,0,0,0,25,10,0,40,0,15,0,0,0,0,0,1000,530.376459,False,33.57359904,TA5SI3_D8L,0.369461806,1295.162405,Nb40 Hf25 Si15 Co10 Mn10 
2377,0,40,0,0,0,35,5,0,0,10,10,0,0,0,0,0,1000,482.6185258,False,15.55684156,BCC_B2,0.571262588,950.1844474,Co40 Hf35 Ni10 Si10 Mn5 
2378,0,5,25,35,20,0,0,0,0,15,0,0,0,0,0,0,1000,109.7166678,False,1.668517727,FCC_L12#2,0.520785371,1106.728291,Cu35 Cr25 Fe20 Ni15 Co5 
2379,0,5,0,0,0,10,0,0,0,0,0,35,30,20,0,0,1000,818.2853081,False,26.17939465,BCC_B2,0.887722271,1260.13156,Ta35 Ti30 V20 Hf10 Co5 
2383,0,20,0,0,0,0,0,0,0,35,0,25,20,0,0,0,1000,503.2986591,False,7.760287905,BCC_B2#2,0.414779055,816.7557646,Ni35 Ta25 Co20 Ti20 
2384,0,15,0,0,0,45,0,0,0,15,15,10,0,0,0,0,1000,724.1302021,False,7.315622199,BCC_B2#2,0.522878422,920.7688021,Hf45 Co15 Ni15 Si15 Ta10 
2385,0,0,0,10,0,30,0,0,35,0,0,25,0,0,0,0,1000,984.6505893,False,28.28159411,BCC_B2,0.700764631,1297.086769,Nb35 Hf30 Ta25 Cu10 
2387,40,0,0,0,0,0,10,0,0,0,35,0,0,15,0,0,1000,520.2673369,False,4.400406226,ALMNSI_T8,0.427695901,772.0919035,Al40 Si35 V15 Mn10 
2388,15,15,15,0,0,0,0,0,40,0,0,0,15,0,0,0,1000,632.975816,False,7.502542151,C14_LAVES,0.58939932,1110.001715,Nb40 Al15 Co15 Cr15 Ti15 
2390,0,25,0,20,0,0,10,0,15,0,30,0,0,0,0,0,1000,708.6730949,False,43.92087112,FESI_B20,0.276257667,773.4883923,Si30 Co25 Cu20 Nb15 Mn10 
2391,0,0,0,0,0,0,10,0,0,0,20,0,5,35,0,30,1000,590.4551676,False,54.10737376,BCC_B2,0.469667569,1287.705053,V35 Zr30 Si20 Mn10 Ti5 
2392,30,0,0,0,25,0,0,0,0,15,0,0,15,15,0,0,1000,275.6877538,False,0.966736627,BCC_B2,0.529600946,998.6677012,Al30 Fe25 Ni15 Ti15 V15 
2393,15,0,0,0,10,0,0,0,0,35,0,0,0,0,0,40,1000,434.4935752,False,0.828286813,C14_LAVES,0.450226546,790.078337,Zr40 Ni35 Al15 Fe10 
2396,0,0,0,0,0,30,10,0,0,20,0,0,40,0,0,0,1000,170.4619861,False,10.50936255,C16_THETA,0.574841889,824.6978212,Ti40 Hf30 Ni20 Mn10 
2397,0,0,15,0,0,0,40,0,0,0,0,0,30,15,0,0,1000,83.34537479,False,30.14549959,BCC_B2,1.0,1283.0203,Mn40 Ti30 Cr15 V15 
2398,0,30,0,0,15,10,0,0,0,40,0,0,5,0,0,0,1000,63.78745917,False,7.597257782,FCC_L12,0.550984722,1109.778909,Ni40 Co30 Fe15 Hf10 Ti5 
2402,35,0,0,0,0,0,20,0,5,0,0,0,30,10,0,0,1000,89.29831259,False,5.841033044,HCP_A3,0.849388493,1120.2265,Al35 Ti30 Mn20 V10 Nb5 
2403,25,0,0,0,0,0,0,0,10,0,0,0,0,30,0,35,1000,211.6070406,False,4.995648544,BCC_B2#2,0.970239433,1353.457399,Zr35 V30 Al25 Nb10 
2404,0,0,0,0,0,0,0,0,15,0,0,25,30,30,0,0,1000,206.575081,False,48.53795554,BCC_B2,1.0,1846.050917,Ti30 V30 Ta25 Nb15 
2407,25,0,20,0,0,20,25,0,0,0,0,0,0,10,0,0,1000,128.3443518,False,5.471699098,C14_LAVES,0.522143242,1398.383869,Al25 Mn25 Cr20 Hf20 V10 
2408,0,0,35,20,0,0,0,0,15,0,0,30,0,0,0,0,1000,606.0752151,False,15.78848465,C15_LAVES,0.509897677,1084.068262,Cr35 Ta30 Cu20 Nb15 
2409,0,0,0,0,0,0,0,0,0,35,30,15,0,0,0,20,1000,967.9785428,False,6.286461631,G_PHASE,0.600462901,760.2021162,Ni35 Si30 Zr20 Ta15 
2410,0,10,0,25,0,0,0,0,0,0,0,45,0,0,0,20,1000,1010.861048,False,16.77249574,BCC_B2,0.315711891,890.5593859,Ta45 Cu25 Zr20 Co10 
2412,0,0,30,0,0,0,0,0,10,15,0,0,45,0,0,0,1000,423.0913565,False,4.107096261,BCC_B2#2,0.418688952,976.6520691,Ti45 Cr30 Ni15 Nb10 
2414,0,0,25,0,0,0,0,0,10,5,0,0,45,0,0,15,1000,30.61830559,False,9.970918577,BCC_B2,0.636185938,1310.027754,Ti45 Cr25 Zr15 Nb10 Ni5 
2415,0,0,30,0,0,15,25,0,0,0,0,0,30,0,0,0,1000,338.307545,False,11.40242236,C14_LAVES,0.794436483,1323.047616,Cr30 Ti30 Mn25 Hf15 
2416,0,0,0,0,25,15,10,0,0,40,0,10,0,0,0,0,1000,453.7506904,False,7.712731567,C15_LAVES,0.376169876,905.9128218,Ni40 Fe25 Hf15 Mn10 Ta10 
2419,0,15,30,25,0,0,0,0,0,0,0,0,0,30,0,0,1000,430.12372,False,18.3547596,BCC_B2,0.74873349,1082.874385,Cr30 V30 Cu25 Co15 
2421,20,0,25,0,0,35,0,0,0,0,0,0,0,20,0,0,1000,128.8574644,False,2.882751964,C15_LAVES,0.939348117,1334.834877,Hf35 Cr25 Al20 V20 
2423,0,30,25,0,0,15,25,0,0,0,0,0,5,0,0,0,1000,222.9642244,False,9.344518446,BCC_B2,0.567831021,1227.257084,Co30 Cr25 Mn25 Hf15 Ti5 
2425,0,0,0,20,0,0,30,0,0,0,0,35,10,5,0,0,1000,837.7767778,False,29.82073132,MNTA,0.547026744,764.2636857,Ta35 Mn30 Cu20 Ti10 V5 
2427,15,0,0,0,30,0,10,0,10,35,0,0,0,0,0,0,1000,82.99020484,False,0.624127761,BCC_B2,0.41630124,1238.675335,Ni35 Fe30 Al15 Mn10 Nb10 
2428,40,0,0,10,0,20,0,0,10,0,20,0,0,0,0,0,1000,1209.599636,False,0.946666269,AL3TI_D022,0.399984422,691.4219457,Al40 Hf20 Si20 Cu10 Nb10 
2429,0,0,35,0,20,0,0,0,0,0,0,20,0,25,0,0,1000,51.01671504,False,14.0486274,BCC_B2,0.642341061,1562.086085,Cr35 V25 Fe20 Ta20 
2430,10,0,0,0,0,0,0,0,0,0,0,30,0,40,0,20,1000,730.5934492,False,15.33173948,C15_LAVES,0.447683021,1245.687174,V40 Ta30 Zr20 Al10 
2432,0,0,0,25,0,0,0,0,30,0,0,20,0,25,0,0,1000,815.3007945,False,53.16783534,BCC_B2,0.751774352,1088.079339,Nb30 Cu25 V25 Ta20 
2435,30,0,0,0,0,0,0,0,0,0,0,10,0,25,0,35,1000,178.4108996,False,4.063270254,AL4ZR5,0.604168523,1322.087349,Zr35 Al30 V25 Ta10 
2437,10,0,0,0,25,0,0,0,40,0,0,0,5,0,0,20,1000,369.8430059,False,23.09573529,C14_LAVES,0.622819424,1110.504773,Nb40 Fe25 Zr20 Al10 Ti5 
2438,10,0,0,0,0,0,5,0,40,30,0,15,0,0,0,0,1000,651.8701,False,6.132031824,MU_PHASE#2,0.644993837,1160.415581,Nb40 Ni30 Ta15 Al10 Mn5 
2439,10,5,30,0,0,0,0,0,0,30,0,0,0,25,0,0,1000,195.9212381,False,2.44914767,BCC_B2,0.836149128,1289.783155,Cr30 Ni30 V25 Al10 Co5 
2440,0,0,10,45,0,20,0,0,5,20,0,0,0,0,0,0,1000,340.1038932,False,4.291010457,NI5ZR_C15B,0.51702137,1144.0,Cu45 Hf20 Ni20 Cr10 Nb5 
2442,30,0,0,0,0,5,0,0,0,15,0,15,0,35,0,0,1000,143.8300324,False,1.260143597,BCC_B2,0.506674491,1434.154918,V35 Al30 Ni15 Ta15 Hf5 
2443,40,0,0,0,10,0,40,0,0,0,10,0,0,0,0,0,1000,214.3865643,False,1.533122017,BCC_B2#2,0.954500269,994.2104687,Al40 Mn40 Fe10 Si10 
2444,0,0,0,0,0,0,0,0,0,0,15,10,35,40,0,0,1000,266.3088151,False,36.1495903,BCC_B2,0.491749124,1427.024713,V40 Ti35 Si15 Ta10 
2445,25,0,0,0,20,40,0,0,0,0,0,0,0,15,0,0,1000,42.15759818,False,2.751977366,C15_LAVES,0.750120313,1239.908855,Hf40 Al25 Fe20 V15 
2446,0,0,0,0,15,0,0,0,40,0,0,20,0,25,0,0,1000,538.8324036,False,53.2136422,BCC_B2,1.0,1495.019115,Nb40 V25 Ta20 Fe15 
2447,0,40,0,0,15,0,0,0,25,0,0,0,20,0,0,0,1000,147.7099819,False,39.4249798,C14_LAVES,0.392090091,1186.338661,Co40 Nb25 Ti20 Fe15 
2449,20,10,40,0,0,0,0,0,15,15,0,0,0,0,0,0,1000,394.6076306,False,1.086148112,C14_LAVES,0.4346009,1379.238265,Cr40 Al20 Nb15 Ni15 Co10 
2451,35,0,0,0,0,0,20,0,20,0,0,0,0,0,0,25,1000,89.74709157,False,9.494294982,C14_LAVES#2,0.635657834,1259.513989,Al35 Zr25 Mn20 Nb20 
2453,0,20,0,0,0,0,30,0,0,15,10,0,0,0,0,25,1000,218.611209,False,9.395791475,C14_LAVES,0.644835337,877.4566873,Mn30 Zr25 Co20 Ni15 Si10 
2454,0,0,10,0,0,0,15,0,0,0,40,0,10,25,0,0,1000,483.6284774,False,47.63929589,W5SI3_D8M,0.367914049,1166.067738,Si40 V25 Mn15 Cr10 Ti10 
2455,0,20,10,0,0,0,0,0,0,0,5,0,45,0,0,20,1000,339.9278677,False,33.39344576,BCC_B2#2,0.338872135,792.4789248,Ti45 Co20 Zr20 Cr10 Si5 
2457,40,30,0,10,0,0,20,0,0,0,0,0,0,0,0,0,1000,504.1475395,False,1.524591157,BCC_B2#2,0.878009953,939.0888531,Al40 Co30 Mn20 Cu10 
2459,0,0,0,0,5,40,0,0,0,0,15,0,20,20,0,0,1000,753.3263746,False,29.26613011,C16_THETA,0.409824271,968.4437365,Hf40 Ti20 V20 Si15 Fe5 
2460,0,0,30,0,10,45,0,0,15,0,0,0,0,0,0,0,1000,192.6129474,False,13.59114758,C14_LAVES,0.529239326,1392.532883,Hf45 Cr30 Nb15 Fe10 
2461,0,20,0,0,0,10,0,0,40,5,0,0,0,25,0,0,1000,478.1612307,False,29.12222918,BCC_B2,0.578172343,1150.298938,Nb40 V25 Co20 Hf10 Ni5 
2464,0,0,35,0,0,10,0,0,0,15,0,10,0,0,0,30,1000,695.128609,False,3.945978335,C15_LAVES,0.533625172,1041.659445,Cr35 Zr30 Ni15 Hf10 Ta10 
2466,0,0,5,0,30,0,25,0,0,0,0,30,0,10,0,0,1000,244.7372517,False,28.64520683,C14_LAVES,0.761063125,1321.305084,Fe30 Ta30 Mn25 V10 Cr5 
2469,0,10,0,0,0,0,0,0,45,0,0,25,20,0,0,0,1000,1110.444142,False,34.21508521,BCC_B2,0.827291539,1095.37739,Nb45 Ta25 Ti20 Co10 
2471,0,15,0,0,20,0,0,0,20,25,0,0,0,20,0,0,1000,179.5624225,False,21.27897797,C14_LAVES,0.311094746,1068.008593,Ni25 Fe20 Nb20 V20 Co15 
2473,0,35,0,0,0,0,0,0,0,20,0,35,0,10,0,0,1000,150.008067,False,14.32607779,C15_LAVES,0.8078192,1309.487283,Co35 Ta35 Ni20 V10 
2474,0,0,35,15,0,0,30,0,0,20,0,0,0,0,0,0,1000,402.7551696,False,2.616092254,FCC_L12,0.637045731,1000.52241,Cr35 Mn30 Ni20 Cu15 
2477,5,10,0,45,0,0,0,0,0,0,30,0,0,0,0,10,1000,749.4339986,False,9.6747096,BCC_B2,0.570170357,803.8668703,Cu45 Si30 Co10 Zr10 Al5 
2478,0,0,35,0,0,0,20,0,0,0,15,5,25,0,0,0,1000,569.7647002,False,10.33960085,C15_LAVES,0.329426429,1217.640465,Cr35 Ti25 Mn20 Si15 Ta5 
2479,0,0,0,40,0,0,0,0,0,0,0,0,30,20,0,10,1000,574.432409,False,52.8498662,BCC_B2,0.296274349,849.7961378,Cu40 Ti30 V20 Zr10 
2480,0,15,0,0,0,0,15,0,0,15,10,0,0,0,0,45,1000,497.2579747,False,9.330414639,C14_LAVES,0.436988172,954.9144888,Zr45 Co15 Mn15 Ni15 Si10 
2481,25,20,0,0,10,0,40,0,0,0,0,0,0,5,0,0,1000,65.32360233,False,5.878304929,BCC_B2#2,1.0,1287.368103,Mn40 Al25 Co20 Fe10 V5 
2482,0,45,5,0,15,0,10,0,0,0,0,0,0,0,0,25,1000,349.2058143,False,27.36080286,C15_LAVES,0.766903927,1067.48744,Co45 Zr25 Fe15 Mn10 Cr5 
2484,0,0,0,0,20,0,0,0,0,0,30,30,0,0,0,20,1000,1571.513304,False,17.44851006,C14_LAVES#2,0.579436666,1183.23648,Si30 Ta30 Fe20 Zr20 
2486,0,0,35,10,0,15,0,0,0,0,0,10,0,0,0,30,1000,572.5224336,False,10.28158355,C15_LAVES,0.635751518,1101.993223,Cr35 Zr30 Hf15 Cu10 Ta10 
2487,0,0,20,0,10,0,0,0,0,0,35,0,10,25,0,0,1000,449.9336434,False,22.69111852,CR3SI_A15,0.474982119,1235.514593,Si35 V25 Cr20 Fe10 Ti10 
2488,10,0,0,0,35,0,0,0,20,0,0,0,0,0,0,35,1000,238.7823527,False,18.54365299,C14_LAVES,0.896224753,1111.273125,Fe35 Zr35 Nb20 Al10 
2490,0,0,0,0,0,45,0,0,5,0,20,15,15,0,0,0,1000,849.9938903,False,16.21160002,C16_THETA,0.599994289,1213.22291,Hf45 Si20 Ta15 Ti15 Nb5 
2491,40,0,0,20,20,10,0,0,0,0,10,0,0,0,0,0,1000,376.4288436,False,0.876511986,BCC_B2#2,0.805507674,1147.146498,Al40 Cu20 Fe20 Hf10 Si10 
2493,0,0,0,10,0,0,20,0,0,0,45,0,0,0,0,25,1000,1204.707651,False,34.87380525,MSI_B27,0.499984011,772.0749774,Si45 Zr25 Mn20 Cu10 
2495,5,0,0,0,10,0,0,0,0,0,0,0,15,25,0,45,1000,131.1546539,False,37.12803125,BCC_B2,0.653189688,963.8243844,Zr45 V25 Ti15 Fe10 Al5 
2497,0,15,20,0,0,0,20,0,0,40,0,0,5,0,0,0,1000,104.1908722,False,3.085118985,FCC_L12,1.0,1121.692118,Ni40 Cr20 Mn20 Co15 Ti5 
2499,0,0,25,0,0,40,25,0,0,0,0,0,0,10,0,0,1000,532.7700428,False,19.88947097,C14_LAVES,0.637029932,1208.207088,Hf40 Cr25 Mn25 V10 
2503,0,0,0,0,20,0,40,0,0,0,25,0,15,0,0,0,1000,740.2248876,False,35.95464608,M5SI3_D88,0.222609493,1006.446785,Mn40 Si25 Fe20 Ti15 
2504,40,0,0,0,0,25,0,0,15,15,0,5,0,0,0,0,1000,777.1824418,False,1.258860688,C14_LAVES,0.593222561,913.1700347,Al40 Hf25 Nb15 Ni15 Ta5 
2505,10,0,0,0,0,0,5,0,10,0,0,35,0,40,0,0,1000,473.9513397,False,16.3560926,BCC_B2,1.0,1647.383029,V40 Ta35 Al10 Nb10 Mn5 
2506,20,0,40,0,0,5,0,0,0,0,0,10,25,0,0,0,1000,54.72869048,False,5.203661518,BCC_B2,0.627971537,1569.508072,Cr40 Ti25 Al20 Ta10 Hf5 
2507,0,0,40,10,0,0,0,0,15,15,0,20,0,0,0,0,1000,478.4615076,False,4.846612429,C14_LAVES,0.434536222,1086.648815,Cr40 Ta20 Nb15 Ni15 Cu10 
2511,0,0,0,0,0,0,25,0,40,0,20,15,0,0,0,0,1000,589.3134157,False,40.60643825,TA5SI3_D8L,0.531779894,1364.415345,Nb40 Mn25 Si20 Ta15 
2513,40,0,0,0,0,0,0,0,30,0,0,0,15,15,0,0,1000,214.5837397,False,11.56793724,HCP_A3,0.54395679,1380.041887,Al40 Nb30 Ti15 V15 
2515,0,0,40,0,0,0,25,0,0,10,0,0,0,25,0,0,1000,241.3534799,False,8.050351391,BCC_B2,1.0,1412.757605,Cr40 Mn25 V25 Ni10 
2516,20,0,20,0,0,0,0,0,15,0,40,0,0,5,0,0,1000,1131.446312,False,8.388937668,M6SI5,0.476658263,841.8079886,Si40 Al20 Cr20 Nb15 V5 
2517,10,0,0,30,0,10,0,0,0,15,0,0,0,0,0,35,1000,377.88726,False,4.087515781,BCC_B2#2,0.965423861,815.347295,Zr35 Cu30 Ni15 Al10 Hf10 
2518,0,0,30,25,0,10,0,0,35,0,0,0,0,0,0,0,1000,645.0108388,False,15.97450167,C15_LAVES,0.432191859,1002.557187,Nb35 Cr30 Cu25 Hf10 
2519,0,15,0,0,0,0,0,0,20,0,0,25,25,15,0,0,1000,700.5205095,False,49.82563953,BCC_B2,0.749607255,1116.726448,Ta25 Ti25 Nb20 Co15 V15 
2522,0,5,0,0,0,0,20,0,0,0,20,0,25,0,0,30,1000,741.6883781,False,37.55693585,C14_LAVES,0.379180792,1073.182702,Zr30 Ti25 Mn20 Si20 Co5 
2523,10,0,0,0,0,45,20,0,0,0,15,0,0,10,0,0,1000,640.1222044,False,18.17773702,C16_THETA,0.48779937,1346.968785,Hf45 Mn20 Si15 Al10 V10 
2524,10,0,25,0,0,0,0,0,0,0,10,30,25,0,0,0,1000,156.6087101,False,6.191538994,BCC_B2#2,0.430680706,1610.685397,Ta30 Cr25 Ti25 Al10 Si10 
2525,0,0,25,0,0,0,0,0,10,0,20,0,0,45,0,0,1000,169.9964965,False,19.41327032,CR3SI_A15,0.698015749,1665.775995,V45 Cr25 Si20 Nb10 
2526,0,15,25,0,0,0,0,0,20,10,0,0,0,30,0,0,1000,245.2634969,False,14.66100433,BCC_B2,0.602676936,1144.582121,V30 Cr25 Nb20 Co15 Ni10 
2527,0,0,15,0,10,0,0,0,0,10,0,0,30,35,0,0,1000,383.6318935,False,9.238325854,BCC_B2,0.75202656,1073.29989,V35 Ti30 Cr15 Fe10 Ni10 
2529,0,5,0,0,10,0,35,0,0,35,0,0,0,0,0,15,1000,165.6031227,False,7.129635108,FCC_L12,0.557420901,791.4234395,Mn35 Ni35 Zr15 Fe10 Co5 
2531,15,0,0,0,0,0,0,0,0,30,0,0,35,0,0,20,1000,249.9836795,False,2.061310949,BCC_B2#2,0.575624588,1126.537286,Ti35 Ni30 Zr20 Al15 
2532,30,0,0,35,0,10,0,0,0,0,0,25,0,0,0,0,1000,1238.313754,False,1.561729768,SIGMA,0.418059634,600.0,Cu35 Al30 Ta25 Hf10 
2535,15,0,0,0,40,20,20,0,0,0,5,0,0,0,0,0,1000,239.2655598,False,4.211094081,C14_LAVES,0.527467313,1310.261424,Fe40 Hf20 Mn20 Al15 Si5 
2536,0,0,0,0,10,0,0,0,0,0,35,35,20,0,0,0,1000,659.816653,False,19.29030636,C16_THETA,0.45080566,1242.702251,Si35 Ta35 Ti20 Fe10 
2537,0,0,0,0,0,15,25,0,20,0,40,0,0,0,0,0,1000,644.8390069,False,32.42498182,ZR5SI4_TP36,0.31750175,1226.070972,Si40 Mn25 Nb20 Hf15 
2538,10,20,0,0,25,0,0,0,0,0,0,10,0,35,0,0,1000,56.79691463,False,13.58030858,BCC_B2#2,0.748748572,1334.050249,V35 Fe25 Co20 Al10 Ta10 
2539,30,25,0,10,0,0,0,0,20,15,0,0,0,0,0,0,1000,882.411891,False,1.296436441,C14_LAVES,0.591430908,1012.705972,Al30 Co25 Nb20 Ni15 Cu10 
2543,0,35,0,0,0,10,0,0,0,10,0,0,0,30,0,15,1000,138.9347595,False,16.79121194,C15_LAVES,0.711700156,1184.891548,Co35 V30 Zr15 Hf10 Ni10 
2544,20,25,20,0,0,0,0,0,0,0,15,0,0,20,0,0,1000,18.18045742,False,3.414619537,BCC_B2#2,0.663292215,1432.728286,Co25 Al20 Cr20 V20 Si15 
2547,40,30,0,0,0,15,0,0,0,5,0,0,0,0,0,10,1000,335.7005406,False,0.640892562,G_PHASE#2,0.424523562,1509.614845,Al40 Co30 Hf15 Zr10 Ni5 
2548,0,0,0,20,0,0,0,0,40,0,0,0,0,30,0,10,1000,841.695509,False,83.53058703,BCC_B2,0.7135858,888.7282205,Nb40 V30 Cu20 Zr10 