,Al,Co,Cr,Cu,Fe,Hf,Mn,Mo,Nb,Ni,Si,Ta,Ti,V,W,Zr,T (C),freeze_range,literature,mass_change,max_phase,max_phase_fraction,solidus,composition
2060,0,0,10,0,30,0,0,0,45,0,0,0,15,0,0,0,1000,175.6772453,False,32.60400891,C14_LAVES,0.627522412,1332.873572,Nb45 Fe30 Ti15 Cr10 
2062,0,0,15,0,35,0,0,0,0,5,0,15,0,0,0,30,1000,630.8268386,False,4.751993428,C15_LAVES,0.789335681,1037.293477,Fe35 Zr30 Cr15 Ta15 Ni5 
2063,0,0,0,20,0,0,0,0,0,20,15,0,0,0,0,45,1000,678.5708165,False,7.857891255,M3SI2_D5A,0.323483042,1018.539362,Zr45 Cu20 Ni20 Si15 
2064,0,0,0,0,0,0,35,0,40,0,15,0,0,10,0,0,1000,443.5107928,False,80.28620078,TA5SI3_D8L,0.381036935,1227.427621,Nb40 Mn35 Si15 V10 
2065,20,45,0,15,0,20,0,0,0,0,0,0,0,0,0,0,1000,741.6074995,False,1.891846352,HEUSLER_L21,0.46655423,1074.493284,Co45 Al20 Hf20 Cu15 
2067,0,0,15,40,25,0,0,0,0,0,20,0,0,0,0,0,1000,250.4796785,False,7.281310958,BCC_B2#2,0.252023044,1034.167762,Cu40 Fe25 Si20 Cr15 
2068,0,10,0,15,25,0,0,0,0,0,35,15,0,0,0,0,1000,345.9505947,False,21.0396514,C14_LAVES,0.447901673,898.2486602,Si35 Fe25 Cu15 Ta15 Co10 
2070,0,0,0,25,0,35,20,0,0,0,0,0,0,20,0,0,1000,489.9418922,False,38.82261197,BCC_B2,0.237504052,896.4217311,Hf35 Cu25 Mn20 V20 
2073,0,0,25,35,0,15,5,0,0,0,0,0,0,20,0,0,1000,767.5371835,False,19.95010513,CU8HF3,0.481249088,912.4565236,Cu35 Cr25 V20 Hf15 Mn5 
2075,0,40,20,0,0,0,0,0,0,0,0,0,25,5,0,10,1000,112.0257165,False,26.44408223,C15_LAVES,0.781679812,1215.5768,Co40 Ti25 Cr20 Zr10 V5 
2078,10,30,20,0,0,0,0,0,0,0,0,40,0,0,0,0,1000,247.2251343,False,3.555277201,C14_LAVES,0.982922947,1561.694876,Ta40 Co30 Cr20 Al10 
2081,10,0,0,0,0,0,20,0,0,20,35,0,0,15,0,0,1000,594.3173127,False,13.28562809,MN1NI1SI1,0.341993507,1035.480663,Si35 Mn20 Ni20 V15 Al10 
2082,0,0,0,0,0,20,0,0,5,0,35,25,15,0,0,0,1000,179.5212633,False,17.18830332,ZR5SI4_TP36,0.513490793,2059.103746,Si35 Ta25 Hf20 Ti15 Nb5 
2083,0,0,10,35,0,30,0,0,0,25,0,0,0,0,0,0,1000,153.1302574,False,4.807287316,BCC_B2#2,0.45288988,1096.310088,Cu35 Hf30 Ni25 Cr10 
2085,20,0,10,0,30,0,40,0,0,0,0,0,0,0,0,0,1000,221.8415509,False,0.562497808,BCC_B2#2,1.0,1531.495982,Mn40 Fe30 Al20 Cr10 
2086,0,0,0,5,10,40,15,0,0,0,0,0,0,0,0,30,1000,143.7921142,False,26.17710272,BCC_B2#2,0.545120369,1073.045241,Hf40 Zr30 Mn15 Fe10 Cu5 
2087,0,0,20,0,0,0,0,0,0,0,25,45,0,10,0,0,1000,249.8268497,False,15.82859287,M3SI,0.521710242,1504.792291,Ta45 Si25 Cr20 V10 
2088,10,0,40,25,0,0,0,0,0,25,0,0,0,0,0,0,1000,493.82094,False,0.946088196,FCC_L12,0.414371166,994.8706299,Cr40 Cu25 Ni25 Al10 
2090,0,0,0,0,0,0,20,0,15,5,45,15,0,0,0,0,1000,660.9010154,False,14.20117356,TA5SI3_D8L,0.336821312,1161.988839,Si45 Mn20 Nb15 Ta15 Ni5 
2094,0,10,0,0,0,0,30,0,0,0,0,0,45,15,0,0,1000,167.1464776,False,52.52637799,BCC_B2,0.810487976,1014.031544,Ti45 Mn30 V15 Co10 
2095,0,0,0,20,0,40,0,0,0,0,0,30,0,0,0,10,1000,955.756381,False,16.23930633,MOSI2_C11B,0.598427234,1240.503894,Hf40 Ta30 Cu20 Zr10 
2097,0,0,25,0,0,0,10,0,0,25,20,0,0,0,0,20,1000,258.0294709,False,3.910631868,C14_LAVES#2,0.47732941,1246.110355,Cr25 Ni25 Si20 Zr20 Mn10 
2099,0,20,15,0,0,0,0,0,0,0,0,30,0,0,0,35,1000,111.6425448,False,12.25655396,C16_THETA,0.941285293,1346.268009,Zr35 Ta30 Co20 Cr15 
2100,0,0,0,0,25,0,0,0,20,30,15,10,0,0,0,0,1000,707.4110188,False,10.28088747,NI31SI12,0.341707369,910.6170971,Ni30 Fe25 Nb20 Si15 Ta10 
2101,15,35,0,20,0,25,0,0,0,5,0,0,0,0,0,0,1000,868.7928748,False,3.113702545,C14_LAVES,0.572385871,958.2364274,Co35 Hf25 Cu20 Al15 Ni5 
2104,0,0,20,0,0,0,30,0,0,0,0,35,0,15,0,0,1000,214.6721902,False,18.81455033,C14_LAVES,0.539902954,1335.560452,Ta35 Mn30 Cr20 V15 
2105,0,0,0,0,20,20,40,0,0,0,15,0,0,5,0,0,1000,589.4535736,False,37.39460971,BCC_B2,0.401896895,974.7102369,Mn40 Fe20 Hf20 Si15 V5 
2107,15,0,0,0,0,0,0,0,20,0,15,35,15,0,0,0,1000,145.5673825,False,11.20080336,SIGMA,0.455540006,1773.077343,Ta35 Nb20 Al15 Si15 Ti15 
2108,10,0,15,25,0,0,0,0,0,30,0,20,0,0,0,0,1000,563.4578134,False,0.798531895,C14_LAVES,0.586792992,1013.446858,Ni30 Cu25 Ta20 Cr15 Al10 
2109,25,0,30,20,0,15,0,0,0,0,0,0,0,0,0,10,1000,994.9889041,False,1.431672626,C14_LAVES,0.496530819,625.7647665,Cr30 Al25 Cu20 Hf15 Zr10 
2110,0,0,0,0,35,15,0,0,0,0,0,20,0,0,0,30,1000,376.9333419,False,16.5781985,C14_LAVES,0.608601951,1074.795569,Fe35 Zr30 Ta20 Hf15 
2111,0,35,0,5,20,0,0,0,0,0,0,25,15,0,0,0,1000,436.8502496,False,20.43930742,C14_LAVES,0.485762119,1016.777433,Co35 Ta25 Fe20 Ti15 Cu5 
2112,0,30,5,0,0,0,30,0,0,10,0,25,0,0,0,0,1000,337.321563,False,10.37636241,C14_LAVES,0.734751977,974.5401287,Co30 Mn30 Ta25 Ni10 Cr5 
2115,25,15,0,0,10,25,0,0,0,0,0,25,0,0,0,0,1000,433.996716,False,1.892211252,C14_LAVES,0.520648849,1240.752175,Al25 Hf25 Ta25 Co15 Fe10 
2116,0,0,0,0,5,0,0,0,0,0,40,0,20,15,0,20,1000,715.130607,False,56.65910109,ZR5SI4_TP36,0.711169739,1438.579334,Si40 Ti20 Zr20 V15 Fe5 
2118,25,5,0,25,0,0,0,0,0,35,0,10,0,0,0,0,1000,888.27105,False,0.476732885,HEUSLER_L21,0.501786771,962.2752865,Ni35 Al25 Cu25 Ta10 Co5 
2119,0,0,40,0,15,0,0,0,0,30,0,0,0,15,0,0,1000,115.5631654,False,3.907686797,BCC_B2,0.845691321,1351.763242,Cr40 Ni30 Fe15 V15 
2121,0,0,40,0,0,0,0,0,15,0,10,0,35,0,0,0,1000,461.1986437,False,26.54252087,C14_LAVES,0.400443369,1292.768262,Cr40 Ti35 Nb15 Si10 
2123,0,45,0,0,15,0,20,0,5,0,15,0,0,0,0,0,1000,197.1850207,False,33.86974119,FCC_L12#2,0.829467172,790.1034152,Co45 Mn20 Fe15 Si15 Nb5 
2124,20,30,0,0,0,30,0,0,0,0,20,0,0,0,0,0,1000,273.481506,False,1.904916747,C14_LAVES,0.544741473,1278.829112,Co30 Hf30 Al20 Si20 
2125,0,0,0,20,5,0,0,0,0,45,0,0,0,15,0,15,1000,237.3729859,False,12.0826812,NI5ZR_C15B,0.539597343,1054.065314,Ni45 Cu20 V15 Zr15 Fe5 
2126,40,0,15,0,0,0,0,0,0,5,0,0,20,0,0,20,1000,203.6648288,False,0.967947083,C14_LAVES,0.786246482,1498.881044,Al40 Ti20 Zr20 Cr15 Ni5 
2128,0,0,0,0,0,0,0,0,0,15,30,15,0,0,0,40,1000,1726.728857,False,8.061661353,M3SI2_D5A,0.629235083,916.97189,Zr40 Si30 Ni15 Ta15 
2129,0,40,5,0,0,10,0,0,20,0,25,0,0,0,0,0,1000,728.8166896,False,28.17865848,C15_LAVES,0.361737381,922.9611903,Co40 Si25 Nb20 Hf10 Cr5 
2130,30,0,0,0,25,0,0,0,5,25,0,0,0,0,0,15,1000,350.290252,False,0.417791337,BCC_B2#2,0.423029113,1134.604932,Al30 Fe25 Ni25 Zr15 Nb5 
2131,5,15,0,0,0,10,0,0,30,0,0,0,0,40,0,0,1000,183.5636181,False,33.85887019,BCC_B2,0.757714653,1502.247974,V40 Nb30 Co15 Hf10 Al5 
2132,30,15,0,0,0,0,0,0,15,35,5,0,0,0,0,0,1000,522.6625809,False,0.520083081,BCC_B2#2,0.682718286,1088.416733,Ni35 Al30 Co15 Nb15 Si5 
2133,5,40,0,0,0,0,0,0,0,10,25,20,0,0,0,0,1000,448.2665366,False,5.263254063,C14_LAVES,0.599621199,852.2813689,Co40 Si25 Ta20 Ni10 Al5 
2134,5,0,30,0,0,0,0,0,0,0,0,30,20,15,0,0,1000,173.6432752,False,13.68169012,BCC_B2,1.0,1635.39425,Cr30 Ta30 Ti20 V15 Al5 
2135,5,0,0,0,15,0,35,0,0,0,0,35,0,10,0,0,1000,181.6637295,False,20.92754088,C14_LAVES,0.706016083,1264.061664,Mn35 Ta35 Fe15 V10 Al5 
2136,20,0,0,0,0,0,0,0,35,0,0,0,0,30,0,15,1000,200.7645109,False,27.41722325,BCC_B2,1.0,1600.985378,Nb35 V30 Al20 Zr15 
2138,0,35,0,5,0,15,35,0,0,0,0,0,10,0,0,0,1000,374.0841685,False,22.543174,BCC_B2#2,0.517743396,1048.284326,Co35 Mn35 Hf15 Ti10 Cu5 
2139,30,0,0,25,0,15,0,0,0,30,0,0,0,0,0,0,1000,544.084815,False,0.35911485,BCC_B2#2,0.522035841,659.3710062,Al30 Ni30 Cu25 Hf15 
2140,0,25,5,0,0,35,0,0,0,20,0,15,0,0,0,0,1000,190.9396399,False,7.513662397,BCC_B2#2,0.724294453,1295.676518,Hf35 Co25 Ni20 Ta15 Cr5 
2141,0,0,0,45,0,20,15,0,0,0,0,20,0,0,0,0,1000,1165.910241,False,20.73717091,CU8HF3,0.391901823,883.4314085,Cu45 Hf20 Ta20 Mn15 
2144,0,0,0,0,0,5,15,0,10,0,45,25,0,0,0,0,1000,1010.380155,False,18.44396017,TA5SI3_D8L,0.467625416,1120.84197,Si45 Ta25 Mn15 Nb10 Hf5 
2145,0,0,10,0,0,25,25,0,0,0,0,20,0,20,0,0,1000,155.5362139,False,28.44368922,C14_LAVES,0.524722363,1345.304938,Hf25 Mn25 Ta20 V20 Cr10 
2146,0,30,15,35,5,15,0,0,0,0,0,0,0,0,0,0,1000,355.7466476,False,11.33819108,C15_LAVES,0.450259076,1062.894252,Cu35 Co30 Cr15 Hf15 Fe5 
2147,0,15,40,15,0,0,0,0,0,30,0,0,0,0,0,0,1000,160.3745382,False,1.42520175,FCC_L12#2,0.804726157,1113.004925,Cr40 Ni30 Co15 Cu15 
2148,30,0,0,0,0,10,0,0,20,0,40,0,0,0,0,0,1000,918.5868091,False,3.835406693,CRSI2_C40,0.340241703,795.5135177,Si40 Al30 Nb20 Hf10 
2149,0,0,0,0,0,0,35,0,0,0,10,15,0,15,0,25,1000,514.1433761,False,38.50920829,C14_LAVES,0.421030762,1171.812001,Mn35 Zr25 Ta15 V15 Si10 
2150,35,15,0,0,0,0,0,0,5,0,0,0,0,35,0,10,1000,252.8755892,False,2.971359944,BCC_B2#2,0.645820791,1346.237078,Al35 V35 Co15 Zr10 Nb5 
2152,30,45,10,0,10,0,0,0,0,0,0,5,0,0,0,0,1000,127.7337377,False,0.715053391,BCC_B2#4,0.735810719,1384.072503,Co45 Al30 Cr10 Fe10 Ta5 
2154,15,5,40,0,0,25,0,0,15,0,0,0,0,0,0,0,1000,695.8490819,False,6.279201774,C14_LAVES,0.828035925,1181.495157,Cr40 Hf25 Al15 Nb15 Co5 
2156,0,0,20,0,5,0,0,0,0,30,10,35,0,0,0,0,1000,363.8919695,False,1.630641612,C14_LAVES#2,0.957874577,1047.548109,Ta35 Ni30 Cr20 Si10 Fe5 
2157,0,0,5,30,10,0,0,0,0,0,0,10,0,45,0,0,1000,416.4589874,False,34.56051606,BCC_B2,0.580788763,1084.638339,V45 Cu30 Fe10 Ta10 Cr5 
2158,0,10,35,0,10,0,0,0,0,40,0,0,0,0,0,5,1000,115.9147792,False,0.83988337,FCC_L12,0.769707926,1216.293871,Ni40 Cr35 Co10 Fe10 Zr5 
2159,0,0,5,40,0,10,0,0,0,20,25,0,0,0,0,0,1000,165.2038521,False,5.903461095,CU56SI11_GAMMA,0.564746356,1012.116739,Cu40 Si25 Ni20 Hf10 Cr5 
2160,0,0,20,0,0,10,0,0,0,20,10,0,0,40,0,0,1000,666.4761963,False,5.690971676,BCC_B2,0.429864318,920.6092074,V40 Cr20 Ni20 Hf10 Si10 
2162,30,0,0,0,0,0,10,0,0,10,0,0,5,0,0,45,1000,412.9506761,False,0.626448328,AL2ZR3,0.46946215,794.6070068,Zr45 Al30 Mn10 Ni10 Ti5 
2163,30,0,0,0,25,0,0,0,0,0,15,0,25,0,0,5,1000,705.304286,False,0.906048869,BCC_B2#2,0.565087052,1113.743615,Al30 Fe25 Ti25 Si15 Zr5 
2164,0,20,0,0,30,0,0,0,0,0,10,0,40,0,0,0,1000,166.2143843,False,33.67505195,C14_LAVES,0.592059225,1168.41872,Ti40 Fe30 Co20 Si10 
2165,40,20,5,0,0,0,0,0,0,0,0,25,10,0,0,0,1000,551.7445654,False,1.040844686,C14_LAVES,0.743288114,1287.523727,Al40 Ta25 Co20 Ti10 Cr5 
2169,0,0,0,0,0,40,10,0,10,35,5,0,0,0,0,0,1000,66.05788692,False,6.959203194,HFNI_ALPHA,0.65920203,1027.834013,Hf40 Ni35 Mn10 Nb10 Si5 
2170,10,0,0,35,0,0,10,0,0,30,0,0,0,15,0,0,1000,90.43923813,False,10.55785792,BCC_B2#2,0.539052189,1022.179489,Cu35 Ni30 V15 Al10 Mn10 
2171,0,0,35,0,0,0,0,0,0,20,10,0,0,20,0,15,1000,327.7762229,False,7.332794635,BCC_B2,0.495850527,1347.619812,Cr35 Ni20 V20 Zr15 Si10 
2173,0,15,15,0,0,20,15,0,0,35,0,0,0,0,0,0,1000,277.5918727,False,4.010733273,NI7ZR2,0.362913312,1019.247886,Ni35 Hf20 Co15 Cr15 Mn15 
2175,0,0,15,0,0,0,10,0,45,0,25,5,0,0,0,0,1000,560.9050158,False,23.1422309,TA5SI3_D8L,0.550201347,1453.633452,Nb45 Si25 Cr15 Mn10 Ta5 
2178,0,0,0,10,0,25,0,0,0,0,0,30,30,0,0,5,1000,909.599299,False,19.56615461,BCC_B2#2,0.703504679,1127.449577,Ta30 Ti30 Hf25 Cu10 Zr5 
2180,25,0,0,0,25,0,0,0,40,10,0,0,0,0,0,0,1000,185.7259572,False,0.952325133,C14_LAVES,0.990348764,1557.814889,Nb40 Al25 Fe25 Ni10 
2181,10,0,40,0,0,0,0,0,30,20,0,0,0,0,0,0,1000,495.477855,False,3.373922073,C14_LAVES,0.945011889,1382.710507,Cr40 Nb30 Ni20 Al10 
2183,0,20,0,0,15,0,0,0,0,20,15,0,0,0,0,30,1000,287.06695,False,7.56298977,C14_LAVES,0.738980336,1061.627695,Zr30 Co20 Ni20 Fe15 Si15 
2184,0,0,0,0,0,0,0,0,45,20,20,0,15,0,0,0,1000,632.3202414,False,13.45523275,TA5SI3_D8L,0.481360772,1117.617359,Nb45 Ni20 Si20 Ti15 
2189,25,0,0,0,10,0,25,0,0,0,0,0,0,20,0,20,1000,237.341525,False,9.113719526,BCC_B2,0.509006469,1192.096507,Al25 Mn25 V20 Zr20 Fe10 
2190,0,10,20,5,20,0,45,0,0,0,0,0,0,0,0,0,1000,364.1591572,False,10.45792291,SIGMA,0.860927341,925.9511204,Mn45 Cr20 Fe20 Co10 Cu5 
2191,0,0,0,0,10,20,0,0,0,25,45,0,0,0,0,0,1000,539.4818178,False,8.189243662,G_PHASE,0.414285714,934.2046083,Si45 Ni25 Hf20 Fe10 
2192,0,25,0,0,35,0,0,0,0,25,0,0,0,0,0,15,1000,21.58944081,False,6.769293727,FCC_L12,0.442142642,1161.040024,Fe35 Co25 Ni25 Zr15 
2194,0,0,20,0,0,0,0,0,10,0,0,0,25,0,0,45,1000,107.4540211,False,25.97851537,BCC_B2,0.869809553,1281.447758,Zr45 Ti25 Cr20 Nb10 
2195,0,0,5,45,0,15,0,0,0,25,0,0,0,10,0,0,1000,321.4747226,False,10.16706667,NI5ZR_C15B,0.804485872,1079.150564,Cu45 Ni25 Hf15 V10 Cr5 
2196,0,5,0,30,30,0,0,0,25,0,0,10,0,0,0,0,1000,720.097846,False,31.61442303,MU_PHASE#3,0.357412708,1092.679252,Cu30 Fe30 Nb25 Ta10 Co5 
2197,0,15,20,10,45,10,0,0,0,0,0,0,0,0,0,0,1000,364.7022663,False,7.399434954,BCC_B2,0.5979291,1039.127989,Fe45 Cr20 Co15 Cu10 Hf10 
2198,0,0,0,0,0,0,5,0,30,10,15,0,0,0,0,40,1000,890.5188683,False,20.47761444,C16_THETA,0.324985048,971.0529803,Zr40 Nb30 Si15 Ni10 Mn5 
2199,0,5,15,25,0,30,0,0,0,25,0,0,0,0,0,0,1000,215.6603464,False,1.927792497,BCC_B2#2,0.481845803,1154.135785,Hf30 Cu25 Ni25 Cr15 Co5 
2204,0,0,30,0,0,25,0,0,10,0,0,20,0,0,0,15,1000,204.9217332,False,11.01715,BCC_B2#2,0.560142113,1483.999619,Cr30 Hf25 Ta20 Zr15 Nb10 
2205,0,0,45,15,0,0,20,0,0,15,5,0,0,0,0,0,1000,489.1294153,False,2.535061169,BCC_B2,0.525098298,945.0440305,Cr45 Mn20 Cu15 Ni15 Si5 
2209,20,45,5,0,0,0,0,0,0,0,0,0,20,0,0,10,1000,159.8650705,False,5.393612468,HEUSLER_L21#2,0.514525374,1241.877192,Co45 Al20 Ti20 Zr10 Cr5 
2211,0,0,25,0,10,15,0,0,0,0,0,40,10,0,0,0,1000,349.3532658,False,7.159288917,C14_LAVES,0.530549311,1502.30935,Ta40 Cr25 Hf15 Fe10 Ti10 
2212,0,10,0,20,0,0,25,0,0,0,45,0,0,0,0,0,1000,503.226128,False,68.53368759,FESI_B20,0.592174812,792.7359744,Si45 Mn25 Cu20 Co10 
2215,35,0,0,0,30,10,0,0,0,0,15,0,0,0,0,10,1000,639.6755682,False,1.148604989,BCC_B2#2,0.661389984,1090.092421,Al35 Fe30 Si15 Hf10 Zr10 
2218,0,5,0,0,45,25,0,0,0,10,15,0,0,0,0,0,1000,211.4389727,False,12.17539073,G_PHASE,0.609807416,1241.99032,Fe45 Hf25 Si15 Ni10 Co5 
2219,0,0,0,0,0,0,20,0,40,0,20,20,0,0,0,0,1000,643.8831837,False,35.52772503,TA5SI3_D8L,0.496766718,1361.142872,Nb40 Mn20 Si20 Ta20 
2220,25,0,40,0,0,0,0,0,0,0,10,0,0,0,0,25,1000,234.6662882,False,1.39494049,C14_LAVES,0.755698178,1564.95593,Cr40 Al25 Zr25 Si10 
2221,0,0,0,0,10,35,0,0,0,10,0,5,0,40,0,0,1000,319.30368,False,16.05599227,C15_LAVES,0.780507245,1133.214227,V40 Hf35 Fe10 Ni10 Ta5 
2222,35,10,0,0,0,0,0,0,5,0,0,0,0,35,0,15,1000,326.8200826,False,3.619274985,BCC_B2,0.583254962,1305.62823,Al35 V35 Zr15 Co10 Nb5 
2224,0,25,0,25,0,0,0,0,0,0,15,0,10,25,0,0,1000,627.6983185,False,45.80915846,CR3SI_A15,0.296473475,805.6725537,Co25 Cu25 V25 Si15 Ti10 
2225,5,0,20,0,0,10,0,0,0,0,0,0,45,0,0,20,1000,57.70735022,False,12.63109128,BCC_B2#2,0.795729108,1340.386946,Ti45 Cr20 Zr20 Hf10 Al5 
2226,0,0,25,20,15,0,0,0,0,0,0,15,0,0,0,25,1000,759.3771782,False,10.63004884,C15_LAVES,0.605933323,887.7376588,Cr25 Zr25 Cu20 Fe15 Ta15 
2230,0,20,15,40,0,0,0,0,0,0,0,5,0,20,0,0,1000,284.8146172,False,24.04098199,BCC_B2,0.448628952,1083.807347,Cu40 Co20 V20 Cr15 Ta5 
2232,0,40,0,0,0,0,20,0,0,25,0,0,5,10,0,0,1000,73.19674756,False,17.1110212,FCC_L12,1.0,1161.260024,Co40 Ni25 Mn20 V10 Ti5 
2236,0,0,0,0,25,0,0,0,0,0,35,0,30,10,0,0,1000,629.6786112,False,43.65764796,ZR5SI4_TP36,0.51009737,1121.202464,Si35 Ti30 Fe25 V10 
2237,0,0,45,0,15,0,0,0,0,0,0,25,0,5,0,10,1000,87.30042648,False,13.16454894,C15_LAVES,1.0,1691.176086,Cr45 Ta25 Fe15 Zr10 V5 
2238,25,0,35,0,20,0,0,0,0,0,0,0,0,5,0,15,1000,167.4862458,False,3.273073674,BCC_B2#3,0.561655879,1455.427055,Cr35 Al25 Fe20 Zr15 V5 
2239,0,0,0,10,0,0,0,0,45,0,0,0,30,15,0,0,1000,880.1038414,False,88.00283941,BCC_B2,0.836259355,957.3403069,Nb45 Ti30 V15 Cu10 
2241,0,35,0,0,0,0,0,0,0,35,15,15,0,0,0,0,1000,144.2026539,False,8.725623294,NI31SI12,0.467616359,950.2398833,Co35 Ni35 Si15 Ta15 
2242,0,15,0,10,0,45,0,0,0,20,0,0,0,0,0,10,1000,482.646093,False,6.606696298,BCC_B2#2,0.477230864,957.7591054,Hf45 Ni20 Co15 Cu10 Zr10 
2244,0,0,0,25,0,0,0,0,0,0,0,0,20,30,0,25,1000,527.7894771,False,57.84093129,BCC_B2#2,0.564235282,890.3150988,V30 Cu25 Zr25 Ti20 
2245,30,0,0,0,10,0,0,0,30,10,0,0,20,0,0,0,1000,334.1648969,False,2.255804461,BCC_B2,0.562740514,1120.700723,Al30 Nb30 Ti20 Fe10 Ni10 
2247,0,45,30,0,0,0,0,0,0,0,0,0,10,15,0,0,1000,151.192089,False,21.21563896,FCC_L12,0.403487707,1139.042198,Co45 Cr30 V15 Ti10 
2248,0,0,35,10,35,0,0,0,10,0,0,0,0,0,0,10,1000,528.556981,False,6.384314017,C15_LAVES,0.640093748,1028.685342,Cr35 Fe35 Cu10 Nb10 Zr10 
2251,0,0,0,10,0,0,0,0,20,20,0,35,15,0,0,0,1000,833.1236968,False,12.90594206,C16_THETA,0.501958803,950.616917,Ta35 Nb20 Ni20 Ti15 Cu10 
2257,0,0,40,0,0,10,0,0,0,0,25,0,25,0,0,0,1000,220.4577318,False,10.18479998,C15_LAVES,0.663702829,1623.713846,Cr40 Si25 Ti25 Hf10 
2258,0,0,0,25,0,0,0,0,0,0,40,0,0,20,0,15,1000,977.1368778,False,44.74101115,MSI_B27,0.299870318,847.7443647,Si40 Cu25 V20 Zr15 
2259,0,0,20,30,0,0,5,0,20,0,25,0,0,0,0,0,1000,1012.456227,False,18.61078637,M11SI8,0.379357061,931.0463079,Cu30 Si25 Cr20 Nb20 Mn5 
2260,0,0,0,0,0,0,15,0,15,30,35,0,0,5,0,0,1000,452.3845078,False,19.29661655,MN1NI1SI1,0.341362286,1154.125493,Si35 Ni30 Mn15 Nb15 V5 
2264,0,0,0,20,0,0,0,0,0,35,25,0,0,10,0,10,1000,646.0457188,False,13.50330324,G_PHASE,0.483333333,1008.152275,Ni35 Si25 Cu20 V10 Zr10 
2266,25,0,0,30,0,0,0,0,0,10,0,0,15,20,0,0,1000,594.0203014,False,1.360060937,BCC_B2#3,0.556957899,878.0,Cu30 Al25 V20 Ti15 Ni10 
2267,0,0,30,15,15,30,0,0,0,0,0,0,0,10,0,0,1000,617.0970796,False,15.57679283,C15_LAVES,0.730519982,975.6617816,Cr30 Hf30 Cu15 Fe15 V10 
2268,0,0,0,15,0,10,10,0,0,0,0,45,0,0,0,20,1000,1364.633685,False,17.14114716,MOSI2_C11B,0.446685457,748.0358426,Ta45 Zr20 Cu15 Hf10 Mn10 
2269,10,0,0,30,0,0,0,0,0,0,25,10,0,0,0,25,1000,1230.967564,False,6.365544034,BCC_B2,0.400804806,1019.017513,Cu30 Si25 Zr25 Al10 Ta10 
2271,0,15,0,0,0,30,0,0,0,0,0,0,45,0,0,10,1000,29.68794984,False,22.26900253,BCC_B2,0.596891413,1236.961449,Ti45 Hf30 Co15 Zr10 
2273,35,0,0,0,10,0,0,0,0,0,25,30,0,0,0,0,1000,404.8755335,False,0.931671651,C14_LAVES,0.726912998,1027.321778,Al35 Ta30 Si25 Fe10 
2275,0,0,0,0,30,5,40,0,15,10,0,0,0,0,0,0,1000,404.83422,False,12.84690857,C14_LAVES,0.583999367,1081.800235,Mn40 Fe30 Nb15 Ni10 Hf5 
2277,0,0,0,0,0,15,45,0,0,0,0,0,0,20,0,20,1000,376.4250292,False,34.47313661,C14_LAVES,0.723376579,1062.20982,Mn45 V20 Zr20 Hf15 
2279,0,0,25,0,15,0,35,0,10,0,0,0,15,0,0,0,1000,216.5828386,False,9.929983216,C14_LAVES,0.686889513,1305.812375,Mn35 Cr25 Fe15 Ti15 Nb10 
2283,15,0,0,15,0,0,15,0,25,0,30,0,0,0,0,0,1000,907.6924961,False,8.759597392,BCC_B2,0.368180098,904.9323526,Si30 Nb25 Al15 Cu15 Mn15 
2285,0,0,25,0,0,10,5,0,0,30,0,0,30,0,0,0,1000,328.5156251,False,4.030813206,BCC_B2#2,0.638510396,994.2629075,Ni30 Ti30 Cr25 Hf10 Mn5 
2286,0,0,15,0,25,0,0,0,0,0,40,0,20,0,0,0,1000,501.6204987,False,6.520799266,M6SI5,0.348638708,1121.871404,Si40 Fe25 Ti20 Cr15 
2287,0,15,0,0,0,0,0,0,0,0,20,20,45,0,0,0,1000,797.3200011,False,22.03477583,M5SI3_D88,0.523069119,1102.71633,Ti45 Si20 Ta20 Co15 
2288,0,0,0,15,5,0,35,0,20,0,0,0,25,0,0,0,1000,514.6921857,False,47.00955014,C14_LAVES,0.70293834,841.8680862,Mn35 Ti25 Nb20 Cu15 Fe5 
2291,0,0,5,20,25,0,0,0,25,0,0,0,0,0,0,25,1000,559.8683449,False,37.35541722,C15_LAVES,0.315249807,885.3692631,Fe25 Nb25 Zr25 Cu20 Cr5 
2292,0,15,0,20,5,25,0,0,0,0,0,0,0,0,0,35,1000,598.8153364,False,21.78299443,MOSI2_C11B,0.310439957,888.7159014,Zr35 Hf25 Cu20 Co15 Fe5 
2294,10,0,0,35,45,0,0,0,0,0,0,10,0,0,0,0,1000,557.1191835,False,5.37682556,C14_LAVES,0.314147491,1048.438519,Fe45 Cu35 Al10 Ta10 
2295,35,0,0,10,0,0,5,0,20,30,0,0,0,0,0,0,1000,351.3140077,False,0.590717266,BCC_B2#2,0.557102294,1168.177697,Al35 Ni30 Nb20 Cu10 Mn5 
2296,0,10,0,25,15,0,0,0,10,0,0,40,0,0,0,0,1000,647.0455838,False,17.98264424,MU_PHASE,0.410689906,1086.079248,Ta40 Cu25 Fe15 Co10 Nb10 
2297,10,10,0,0,0,0,0,0,0,35,0,0,45,0,0,0,1000,208.9494265,False,2.655669732,BCC_B2#2,0.947621948,1193.925497,Ti45 Ni35 Al10 Co10 
2298,10,0,0,0,0,0,25,0,20,15,30,0,0,0,0,0,1000,611.7170544,False,8.369608372,TA5SI3_D8L,0.302258634,1120.358647,Si30 Mn25 Nb20 Ni15 Al10 
2301,0,0,0,0,45,10,30,0,5,0,0,0,0,10,0,0,1000,276.6438756,False,27.70805039,BCC_B2,0.570503479,1289.466178,Fe45 Mn30 Hf10 V10 Nb5 
2303,0,0,25,0,0,0,0,0,0,0,35,0,20,20,0,0,1000,192.5008977,False,24.60191573,CR3SI_A15,0.455489654,1667.524018,Si35 Cr25 Ti20 V20 
2304,20,0,30,0,0,10,0,0,0,0,0,0,40,0,0,0,1000,180.0733838,False,5.172207275,BCC_B2,0.846253961,1411.161639,Ti40 Cr30 Al20 Hf10 
2306,30,0,15,0,0,0,0,0,0,0,0,0,0,40,0,15,1000,158.6622864,False,2.853249219,BCC_B2,0.652328463,1546.865092,V40 Al30 Cr15 Zr15 