,Al,Co,Cr,Cu,Fe,Hf,Mn,Mo,Nb,Ni,Si,Ta,Ti,V,W,Zr,T (C),freeze_range,literature,mass_change,max_phase,max_phase_fraction,solidus,composition
3593,0,0,0,0,10,0,45,0,0,0,0,25,0,0,0,20,1000,124.3005218,False,20.70153435,C14_LAVES,0.902954929,1341.114954,Mn45 Ta25 Zr20 Fe10 
3595,0,10,0,0,0,0,35,0,15,0,25,0,0,0,0,15,1000,883.9870026,False,46.14368685,FCC_L12,0.483454338,826.1621792,Mn35 Si25 Nb15 Zr15 Co10 
3596,0,0,0,0,20,20,10,0,20,0,0,0,0,30,0,0,1000,60.17833548,False,50.31130707,BCC_B2,0.530925517,1240.339086,V30 Fe20 Hf20 Nb20 Mn10 
3600,15,5,0,10,0,0,25,0,0,0,0,0,0,45,0,0,1000,601.5836245,False,9.80079534,BCC_B2,0.925273376,980.4787908,V45 Mn25 Al15 Cu10 Co5 
3601,0,0,10,35,0,5,0,0,0,0,0,30,0,20,0,0,1000,977.9576635,False,29.33492711,C15_LAVES,0.302502524,961.3271569,Cu35 Ta30 V20 Cr10 Hf5 
3603,30,0,0,25,0,5,0,0,0,0,25,0,0,0,0,15,1000,1061.173313,False,1.503314761,ALCU_EPS,0.44580377,762.4210932,Al30 Cu25 Si25 Zr15 Hf5 
3604,45,0,5,0,0,0,0,0,0,15,20,0,0,0,0,15,1000,604.5990958,False,0.273253069,C14_LAVES,0.469543936,783.6961779,Al45 Si20 Ni15 Zr15 Cr5 
3607,0,0,30,0,0,0,0,0,10,0,35,0,10,0,0,15,1000,126.7314785,False,11.39790935,C14_LAVES,0.666389575,1888.704613,Si35 Cr30 Zr15 Nb10 Ti10 
3608,30,10,30,0,0,0,15,0,0,0,0,0,15,0,0,0,1000,226.0894197,False,2.51106556,BCC_B2#3,1.0,1240.188302,Al30 Cr30 Mn15 Ti15 Co10 
3609,0,0,40,0,5,0,0,0,15,0,0,20,0,20,0,0,1000,136.8274895,False,30.31055613,BCC_B2#2,0.910675198,1571.343396,Cr40 Ta20 V20 Nb15 Fe5 
3610,0,0,0,25,0,0,0,0,0,25,15,0,0,0,0,35,1000,552.8803323,False,7.433193984,NI5ZR_C15B,0.324653909,1018.539362,Zr35 Cu25 Ni25 Si15 
3611,25,0,0,0,0,0,10,0,0,5,25,0,0,0,0,35,1000,812.5816523,False,0.62464893,C15_LAVES,0.451167596,1080.691111,Zr35 Al25 Si25 Mn10 Ni5 
3612,25,0,0,0,0,0,0,0,0,0,30,25,20,0,0,0,1000,395.6769026,False,1.423690465,C14_LAVES,0.432845984,1378.555048,Si30 Al25 Ta25 Ti20 
3613,5,0,0,15,25,0,0,0,0,0,35,20,0,0,0,0,1000,325.6952337,False,6.583750987,FESI_B20,0.439158232,1043.728655,Si35 Fe25 Ta20 Cu15 Al5 
3614,0,0,15,0,15,0,0,0,0,10,25,0,0,35,0,0,1000,559.9910592,False,8.769500488,CR3SI_A15,0.861459193,1077.50101,V35 Si25 Cr15 Fe15 Ni10 
3615,25,10,0,0,0,0,0,0,10,0,20,0,0,0,0,35,1000,434.0946276,False,1.788433461,C14_LAVES,0.554960352,1449.076367,Zr35 Al25 Si20 Co10 Nb10 
3616,0,30,30,0,25,0,0,0,0,0,0,0,0,0,0,15,1000,131.4222807,False,8.534388387,C15_LAVES,0.5289244,1310.607285,Co30 Cr30 Fe25 Zr15 
3617,20,0,25,0,35,10,10,0,0,0,0,0,0,0,0,0,1000,88.42678283,False,1.131649616,BCC_B2#2,0.757921487,1376.301852,Fe35 Cr25 Al20 Hf10 Mn10 
3618,0,0,10,0,10,0,0,0,35,0,40,0,0,5,0,0,1000,895.387033,False,60.80926643,M6SI5,0.617157049,1142.625207,Si40 Nb35 Cr10 Fe10 V5 
3619,0,0,40,0,0,25,0,0,0,0,25,10,0,0,0,0,1000,496.8689862,False,7.335178101,C14_LAVES#2,0.453211975,1551.886051,Cr40 Hf25 Si25 Ta10 
3621,0,0,25,0,0,0,0,0,10,0,20,0,0,25,0,20,1000,328.2304868,False,26.10899043,M3SI2_D5A,0.214597364,1519.206669,Cr25 V25 Si20 Zr20 Nb10 
3624,0,0,0,25,0,30,0,0,0,15,0,0,0,30,0,0,1000,639.2601201,False,16.70989188,BCC_B2#2,0.41096801,944.9854654,Hf30 V30 Cu25 Ni15 
3625,5,0,15,0,0,0,40,0,0,15,0,25,0,0,0,0,1000,494.2570638,False,1.520006421,C14_LAVES,0.582098591,956.1052185,Mn40 Ta25 Cr15 Ni15 Al5 
3626,0,45,15,0,0,0,0,0,25,0,0,0,0,0,0,15,1000,305.9384366,False,30.6021679,C15_LAVES,0.518211069,1219.713756,Co45 Nb25 Cr15 Zr15 
3627,0,5,0,30,0,35,0,0,0,15,0,15,0,0,0,0,1000,700.8909287,False,7.349278317,BCC_B2#2,0.487113822,951.9475857,Hf35 Cu30 Ni15 Ta15 Co5 
3628,0,20,0,35,0,0,0,0,25,0,0,0,0,20,0,0,1000,167.8918317,False,81.37021234,MU_PHASE,0.352797552,1088.785297,Cu35 Nb25 Co20 V20 
3629,0,0,0,0,0,20,0,0,35,0,25,0,20,0,0,0,1000,513.1518784,False,29.91292216,M3SI,0.681587606,1397.693953,Nb35 Si25 Hf20 Ti20 
3631,0,0,0,10,0,0,20,0,0,15,45,10,0,0,0,0,1000,417.2329437,False,10.6432953,MN1NI1SI1,0.34073642,835.897867,Si45 Mn20 Ni15 Cu10 Ta10 
3633,10,0,0,0,30,25,0,0,0,0,5,0,0,30,0,0,1000,166.907249,False,14.67922416,C15_LAVES,0.491554396,1334.734053,Fe30 V30 Hf25 Al10 Si5 
3635,0,35,0,0,35,0,0,0,0,0,20,0,0,0,0,10,1000,92.52954894,False,24.99640266,BCC_B2#2,0.516796847,1062.158803,Co35 Fe35 Si20 Zr10 
3636,0,40,0,5,0,0,0,0,0,0,10,0,0,10,0,35,1000,208.3119234,False,42.95096264,C15_LAVES,0.602818898,1075.106018,Co40 Zr35 Si10 V10 Cu5 
3637,0,0,0,10,40,35,0,0,15,0,0,0,0,0,0,0,1000,655.9680399,False,21.5798965,C14_LAVES,0.641903048,974.0842297,Fe40 Hf35 Nb15 Cu10 
3638,0,0,0,0,0,20,0,0,0,0,15,0,35,25,0,5,1000,368.0727982,False,28.00434039,BCC_B2,0.579137367,1089.731921,Ti35 V25 Hf20 Si15 Zr5 
3640,0,0,0,0,45,0,0,0,15,5,15,0,0,20,0,0,1000,137.3699178,False,32.39432185,BCC_B2,0.808646459,1155.043042,Fe45 V20 Nb15 Si15 Ni5 
3641,0,0,45,20,0,0,0,0,0,0,0,25,0,0,0,10,1000,621.7309555,False,7.227764608,C15_LAVES,0.674728377,1102.169798,Cr45 Ta25 Cu20 Zr10 
3645,0,0,15,15,0,0,0,0,0,0,35,5,0,30,0,0,1000,782.9429594,False,22.45439065,W5SI3_D8M,0.479999132,900.9689821,Si35 V30 Cr15 Cu15 Ta5 
3647,40,0,0,0,0,20,0,0,0,15,0,0,0,0,0,25,1000,726.1852071,False,0.664845448,C15_LAVES,0.590888845,849.4219583,Al40 Zr25 Hf20 Ni15 
3648,0,15,0,0,0,0,0,0,0,15,45,0,0,0,0,25,1000,778.7958579,False,8.511456847,MSI_B27,0.416155002,990.8627846,Si45 Zr25 Co15 Ni15 
3656,0,0,0,15,0,35,15,0,0,0,15,20,0,0,0,0,1000,1176.0461,False,20.51094529,C14_LAVES,0.405267553,888.4532882,Hf35 Ta20 Cu15 Mn15 Si15 
3657,30,0,25,0,0,15,0,0,0,0,0,0,30,0,0,0,1000,259.8949827,False,3.367723775,C14_LAVES,0.538341268,1240.458969,Al30 Ti30 Cr25 Hf15 
3661,25,0,0,0,0,0,25,0,0,0,15,0,25,10,0,0,1000,566.6516113,False,7.703149218,BCC_B2,0.611622445,1254.000208,Al25 Mn25 Ti25 Si15 V10 
3662,15,0,0,0,0,0,5,0,0,20,45,0,15,0,0,0,1000,723.5946943,False,1.659907873,BCC_B2,0.504335702,967.4631207,Si45 Ni20 Al15 Ti15 Mn5 
3664,35,0,0,15,0,10,15,0,0,0,25,0,0,0,0,0,1000,791.9298156,False,1.975037827,ZRSI2_C49,0.299998218,752.7938025,Al35 Si25 Cu15 Mn15 Hf10 
3666,0,0,0,35,0,20,0,0,0,0,0,25,0,0,0,20,1000,1369.306932,False,17.44642525,MOSI2_C11B,0.434600352,761.0803935,Cu35 Ta25 Hf20 Zr20 
3671,20,0,0,0,0,0,0,0,40,20,15,0,0,0,0,5,1000,563.2861863,False,0.788732013,C14_LAVES,0.600369158,1307.830309,Nb40 Al20 Ni20 Si15 Zr5 
3672,0,0,10,0,20,0,0,0,25,0,0,0,45,0,0,0,1000,174.2313142,False,37.95869597,BCC_B2#3,0.795891527,1199.745337,Ti45 Nb25 Fe20 Cr10 
3675,25,0,0,20,0,0,10,0,0,0,0,0,0,45,0,0,1000,571.9990869,False,5.926630858,BCC_B2#2,0.767760524,1055.475511,V45 Al25 Cu20 Mn10 
3676,0,0,35,0,20,0,0,0,0,10,25,0,0,0,0,10,1000,281.1071474,False,3.37556467,CR3SI_A15,0.572195092,1172.07519,Cr35 Si25 Fe20 Ni10 Zr10 
3679,0,0,30,0,35,0,0,0,0,0,20,0,0,0,0,15,1000,371.3373189,False,8.314618223,SIGMA,0.633700364,1251.336523,Fe35 Cr30 Si20 Zr15 
3680,0,0,15,0,0,20,40,0,5,20,0,0,0,0,0,0,1000,586.9288079,False,3.23901022,C14_LAVES,0.486242123,923.5797156,Mn40 Hf20 Ni20 Cr15 Nb5 
3688,0,0,0,0,0,35,10,0,0,0,0,0,0,45,0,10,1000,231.0957748,False,28.93817234,C15_LAVES,0.575466557,1141.881569,V45 Hf35 Mn10 Zr10 
3689,0,0,0,5,0,15,0,0,0,0,20,15,45,0,0,0,1000,787.5905013,False,21.0813778,M5SI3_D88,0.503244601,1135.591633,Ti45 Si20 Hf15 Ta15 Cu5 
3694,35,30,0,0,0,0,0,0,0,25,0,0,0,10,0,0,1000,120.9071369,False,0.85299825,BCC_B2#2,1.0,1478.390816,Al35 Co30 Ni25 V10 
3696,5,0,0,0,0,0,15,0,10,0,0,40,30,0,0,0,1000,711.7296204,False,15.93590095,BCC_B2,0.825683385,1373.787733,Ta40 Ti30 Mn15 Nb10 Al5 
3697,0,0,15,0,0,40,0,0,0,10,20,15,0,0,0,0,1000,1129.812634,False,5.031794104,M3SI2_D5A,0.314466227,933.3002966,Hf40 Si20 Cr15 Ta15 Ni10 
3699,0,15,0,0,15,0,30,0,0,30,10,0,0,0,0,0,1000,847.0567784,False,12.46386616,FCC_L12#2,0.833460249,1261.906804,Mn30 Ni30 Co15 Fe15 Si10 
3707,0,0,35,0,0,25,0,0,0,0,5,0,10,0,0,25,1000,326.97432,False,11.58613562,C15_LAVES,0.494032505,1265.956421,Cr35 Hf25 Zr25 Ti10 Si5 
3708,15,0,0,0,0,15,0,0,0,0,20,45,0,0,0,5,1000,674.4631361,False,2.450815746,C14_LAVES,0.610299112,1810.928042,Ta45 Si20 Al15 Hf15 Zr5 
3709,20,0,0,40,0,0,0,0,20,0,20,0,0,0,0,0,1000,1029.365587,False,4.446142483,GAMMA_H,0.59302244,957.4129155,Cu40 Al20 Nb20 Si20 
3710,15,0,0,20,0,10,40,0,0,0,0,15,0,0,0,0,1000,582.1403522,False,4.868315052,C14_LAVES,0.572709379,821.1158507,Mn40 Cu20 Al15 Ta15 Hf10 
3711,0,0,30,40,0,0,15,0,0,0,0,15,0,0,0,0,1000,757.2566136,False,8.705918323,C15_LAVES,0.24702913,921.6018427,Cu40 Cr30 Mn15 Ta15 
3713,0,0,15,0,30,0,0,0,0,0,5,35,15,0,0,0,1000,184.4915821,False,5.923080956,C14_LAVES,0.779018272,1428.257978,Ta35 Fe30 Cr15 Ti15 Si5 
3714,5,0,0,0,20,0,45,0,0,20,0,10,0,0,0,0,1000,204.0156193,False,5.18744147,FCC_L12,0.787981296,1031.28685,Mn45 Fe20 Ni20 Ta10 Al5 
3717,45,0,15,20,10,0,0,0,0,0,10,0,0,0,0,0,1000,476.5356481,False,0.326143001,BCC_B2#2,0.449663175,796.2456464,Al45 Cu20 Cr15 Fe10 Si10 
3718,0,0,0,5,0,0,0,0,0,30,35,10,20,0,0,0,1000,976.09144,False,7.341124758,CO2SI_C23,0.587265895,900.0261727,Si35 Ni30 Ti20 Ta10 Cu5 
3719,0,0,0,35,10,0,15,0,0,0,0,0,40,0,0,0,1000,284.4357686,False,39.77876147,T2_CU3TI2,0.398745877,784.6768807,Ti40 Cu35 Mn15 Fe10 
3721,0,15,0,0,0,0,0,0,10,35,0,0,5,0,0,35,1000,333.2084396,False,6.70125912,BCC_B2#2,0.809575674,1062.223796,Ni35 Zr35 Co15 Nb10 Ti5 
3722,0,0,5,35,20,0,0,0,30,0,10,0,0,0,0,0,1000,595.7623819,False,41.48983203,C14_LAVES,0.381710465,1089.357999,Cu35 Nb30 Fe20 Si10 Cr5 
3723,15,0,0,45,0,10,25,0,5,0,0,0,0,0,0,0,1000,731.4497098,False,4.165988306,BCC_B2,0.585077003,661.6452199,Cu45 Mn25 Al15 Hf10 Nb5 
3724,0,0,15,0,35,30,0,0,20,0,0,0,0,0,0,0,1000,416.8341566,False,16.37071562,C14_LAVES,0.780684879,1332.860986,Fe35 Hf30 Nb20 Cr15 
3726,35,0,0,10,0,0,15,0,0,5,0,0,35,0,0,0,1000,175.9390883,False,0.78945461,BCC_B2#2,1.0,1001.512476,Al35 Ti35 Mn15 Cu10 Ni5 
3729,30,0,10,0,0,25,35,0,0,0,0,0,0,0,0,0,1000,360.224141,False,0.739571473,C14_LAVES,0.715212086,1239.808356,Mn35 Al30 Hf25 Cr10 
3730,0,0,0,0,0,20,25,0,10,0,0,0,0,5,0,40,1000,113.1695421,False,29.39457247,BCC_B2#2,0.654076724,1197.439008,Zr40 Mn25 Hf20 Nb10 V5 
3731,0,0,20,0,15,0,45,0,15,0,5,0,0,0,0,0,1000,355.8542381,False,16.86430669,SIGMA,0.573210868,1051.063071,Mn45 Cr20 Fe15 Nb15 Si5 
3733,0,40,20,0,20,0,0,0,0,10,0,0,10,0,0,0,1000,183.4995132,False,2.528055739,FCC_L12,0.854275235,1071.726335,Co40 Cr20 Fe20 Ni10 Ti10 
3734,0,25,15,20,0,40,0,0,0,0,0,0,0,0,0,0,1000,473.5113703,False,11.50739724,BCC_B2#2,0.369517273,1045.770729,Hf40 Co25 Cu20 Cr15 
3737,40,0,0,0,0,5,0,0,0,35,10,0,10,0,0,0,1000,536.5834285,False,0.288194971,BCC_B2#2,0.739711026,1060.136313,Al40 Ni35 Si10 Ti10 Hf5 
3738,15,0,0,15,0,40,0,0,0,0,0,0,0,0,0,30,1000,263.3901149,False,6.167937868,MOSI2_C11B,0.411858019,1153.807731,Hf40 Zr30 Al15 Cu15 
3740,0,40,0,0,0,10,0,0,15,0,20,15,0,0,0,0,1000,835.0190333,False,28.78419657,C14_LAVES,0.761431563,856.9940311,Co40 Si20 Nb15 Ta15 Hf10 
3741,25,0,0,15,5,0,30,0,0,25,0,0,0,0,0,0,1000,267.5331798,False,0.320162833,BCC_B2#2,1.0,996.5013746,Mn30 Al25 Ni25 Cu15 Fe5 
3742,0,0,0,15,35,0,15,0,0,10,0,0,0,0,0,25,1000,534.6809216,False,11.56185521,C15_LAVES,0.376145052,838.5130374,Fe35 Zr25 Cu15 Mn15 Ni10 
3743,0,40,0,15,20,0,0,0,0,0,0,0,0,5,0,20,1000,278.8023845,False,40.92148638,C15_LAVES,0.634713656,1066.162308,Co40 Fe20 Zr20 Cu15 V5 
3744,0,0,0,0,0,0,0,0,10,0,25,40,0,10,0,15,1000,1083.704553,False,26.58026704,C14_LAVES,0.455894952,1638.415876,Ta40 Si25 Zr15 Nb10 V10 
3745,20,0,20,0,20,0,0,0,0,25,0,0,0,15,0,0,1000,96.68602178,False,0.653047926,BCC_B2,0.635183942,1374.776578,Ni25 Al20 Cr20 Fe20 V15 
3746,5,15,0,0,0,0,40,0,0,15,25,0,0,0,0,0,1000,2105.35076,False,7.516725654,MN2NISI,0.691715952,894.6492399,Mn40 Si25 Co15 Ni15 Al5 
3749,0,15,0,0,35,0,0,0,20,0,0,0,20,0,0,10,1000,335.0829275,False,52.54697649,C14_LAVES,0.840361668,1058.633388,Fe35 Nb20 Ti20 Co15 Zr10 
3751,45,0,20,0,5,0,15,0,15,0,0,0,0,0,0,0,1000,461.3299834,False,2.701931322,BCC_B2#2,0.608527461,1198.140311,Al45 Cr20 Mn15 Nb15 Fe5 
3752,0,35,30,0,0,0,0,0,0,0,0,25,0,10,0,0,1000,124.7465601,False,15.95284854,C15_LAVES,0.750300078,1392.733428,Co35 Cr30 Ta25 V10 
3753,45,0,0,0,0,0,0,0,0,0,0,10,10,35,0,0,1000,174.0340644,False,4.891506195,BCC_B2,0.525006504,1292.20864,Al45 V35 Ta10 Ti10 
3754,10,15,0,0,0,0,0,0,45,0,0,0,30,0,0,0,1000,654.6357669,False,25.0174448,BCC_B2,0.722229257,1074.387251,Nb45 Ti30 Co15 Al10 
3755,0,0,0,30,0,0,20,0,0,0,0,15,15,0,0,20,1000,833.7230563,False,33.5168333,CU2TIZR,0.491386309,794.3334434,Cu30 Mn20 Zr20 Ta15 Ti15 
3757,0,0,0,40,0,0,0,0,30,15,0,0,0,5,0,10,1000,579.3029934,False,23.64358682,NI5ZR_C15B,0.5995041,1052.435257,Cu40 Nb30 Ni15 Zr10 V5 
3759,0,0,0,0,30,0,40,0,0,0,0,0,20,0,0,10,1000,253.2492976,False,35.1011313,C14_LAVES,0.882150356,1159.823412,Mn40 Fe30 Ti20 Zr10 
3760,0,35,30,0,0,0,0,0,10,10,0,0,0,0,0,15,1000,125.3625226,False,3.704270841,C15_LAVES#2,0.833337518,1342.045364,Co35 Cr30 Zr15 Nb10 Ni10 
3761,0,35,0,0,0,0,0,0,0,25,0,0,0,10,0,30,1000,154.0516209,False,16.39957463,C15_LAVES,0.901864607,1180.872682,Co35 Zr30 Ni25 V10 
3762,0,0,0,30,0,0,35,0,20,0,0,0,5,10,0,0,1000,599.3092162,False,68.42406837,C14_LAVES,0.383358622,810.9339078,Mn35 Cu30 Nb20 V10 Ti5 
3763,0,35,0,0,0,20,30,0,0,0,15,0,0,0,0,0,1000,514.8914559,False,29.85166789,BCC_B2#2,0.36484001,699.486298,Co35 Mn30 Hf20 Si15 
3764,25,15,0,5,0,0,0,0,0,0,0,0,20,0,0,35,1000,435.2962389,False,4.974306486,AL3ZR5,0.531916936,751.9196893,Zr35 Al25 Ti20 Co15 Cu5 
3765,0,0,10,30,0,0,0,0,0,0,35,0,0,5,0,20,1000,978.4587155,False,37.42821783,MSI_B27,0.399891438,860.7679583,Si35 Cu30 Zr20 Cr10 V5 
3766,0,20,10,0,15,15,0,0,0,0,0,40,0,0,0,0,1000,183.9029548,False,19.08637578,C14_LAVES,0.399353645,1427.654877,Ta40 Co20 Fe15 Hf15 Cr10 
3767,0,45,0,0,0,25,5,0,0,0,10,0,15,0,0,0,1000,685.9361319,False,19.1973156,BCC_B2,0.62032971,788.0259515,Co45 Hf25 Ti15 Si10 Mn5 
3768,0,45,0,20,15,10,10,0,0,0,0,0,0,0,0,0,1000,330.8455939,False,33.14212388,FCC_L12,0.565013188,1006.633969,Co45 Cu20 Fe15 Hf10 Mn10 
3769,10,0,15,0,0,20,0,0,0,10,45,0,0,0,0,0,1000,677.404039,False,1.041912036,C14_LAVES,0.600002178,1117.178138,Si45 Hf20 Cr15 Al10 Ni10 
3772,0,0,0,0,0,30,0,0,5,40,0,10,15,0,0,0,1000,340.1040433,False,6.379347828,BCC_B2#3,0.591002693,837.3988264,Ni40 Hf30 Ti15 Ta10 Nb5 
3773,0,0,25,0,20,0,0,0,0,0,15,20,20,0,0,0,1000,147.6859877,False,6.539767618,C14_LAVES,0.772502317,1538.398822,Cr25 Fe20 Ta20 Ti20 Si15 
3774,0,0,25,0,0,0,25,0,0,20,0,5,0,0,0,25,1000,634.7208008,False,3.607730651,C14_LAVES#2,0.565030948,893.0926768,Cr25 Mn25 Zr25 Ni20 Ta5 
3775,0,0,15,15,0,0,0,0,0,0,30,0,0,30,0,10,1000,746.1043514,False,22.49375,CR3SI_A15,0.373021976,1015.561649,Si30 V30 Cr15 Cu15 Zr10 
3777,30,5,0,0,0,25,20,0,0,20,0,0,0,0,0,0,1000,387.2984086,False,0.520357442,C14_LAVES#2,0.613482174,1008.476418,Al30 Hf25 Mn20 Ni20 Co5 
3778,0,0,0,0,20,20,0,0,0,0,40,5,0,0,0,15,1000,1165.155584,False,15.57308916,MSI_B27,0.552486911,1041.090152,Si40 Fe20 Hf20 Zr15 Ta5 
3780,45,10,0,0,0,0,5,0,0,0,0,0,10,30,0,0,1000,351.7750124,False,5.04900201,BCC_B2,0.669624229,1082.906704,Al45 V30 Co10 Ti10 Mn5 
3782,0,20,0,0,25,40,0,0,15,0,0,0,0,0,0,0,1000,344.6018278,False,24.38918421,C14_LAVES,0.419823711,1289.535034,Hf40 Fe25 Co20 Nb15 
3783,15,0,35,0,0,0,40,0,0,0,0,0,0,10,0,0,1000,96.51240865,False,9.516383986,BCC_B2,1.0,1497.224825,Mn40 Cr35 Al15 V10 
3785,15,0,0,10,0,0,0,0,0,0,20,0,15,0,0,40,1000,1227.772815,False,6.300355131,AL3ZR4,0.262364565,789.0175201,Zr40 Si20 Al15 Ti15 Cu10 
3787,5,0,0,10,0,45,0,0,0,0,25,0,15,0,0,0,1000,1498.303052,False,10.96701025,C16_THETA,0.539878184,600.0,Hf45 Si25 Ti15 Cu10 Al5 
3788,0,45,0,10,0,0,0,0,5,0,0,20,20,0,0,0,1000,401.7496221,False,15.24663626,MU_PHASE,0.467113874,1016.48343,Co45 Ta20 Ti20 Cu10 Nb5 
3791,0,0,0,0,35,25,15,0,0,5,0,0,0,0,0,20,1000,918.1034919,False,12.18929633,C14_LAVES,0.788702624,746.5081286,Fe35 Hf25 Zr20 Mn15 Ni5 
3793,15,0,0,45,0,0,0,0,30,10,0,0,0,0,0,0,1000,699.5214104,False,3.401865561,FCC_L12,0.415480001,982.3470795,Cu45 Nb30 Al15 Ni10 
3794,0,20,0,15,30,0,0,0,0,0,0,35,0,0,0,0,1000,518.1803136,False,22.50627151,C14_LAVES,0.468228203,1086.399752,Ta35 Fe30 Co20 Cu15 
3795,0,0,40,0,10,0,0,0,0,0,0,0,25,25,0,0,1000,364.5548673,False,25.74839867,BCC_B2#2,0.943696708,1236.534122,Cr40 Ti25 V25 Fe10 
3796,25,10,0,0,0,10,0,0,0,0,0,0,35,0,0,20,1000,239.2655937,False,6.493097478,AL3ZR5,0.47953269,1182.60095,Ti35 Al25 Zr20 Co10 Hf10 
3798,40,20,10,0,0,0,0,0,0,30,0,0,0,0,0,0,1000,138.6510476,False,0.150676409,BCC_B2#2,1.0,1471.45851,Al40 Ni30 Co20 Cr10 
3799,25,0,40,10,0,5,0,0,0,20,0,0,0,0,0,0,1000,655.8709924,False,0.312180654,BCC_B2,0.440910546,971.6238698,Cr40 Al25 Ni20 Cu10 Hf5 
3800,15,30,0,20,0,0,0,0,0,25,10,0,0,0,0,0,1000,283.5548003,False,1.347530374,BCC_B2#2,0.398129482,1029.161615,Co30 Ni25 Cu20 Al15 Si10 
3801,0,0,0,0,0,0,45,0,0,0,35,0,0,10,0,10,1000,753.0508611,False,47.10385601,M5SI3_D88,0.448645261,987.9314323,Mn45 Si35 V10 Zr10 
3802,10,25,0,0,0,30,0,0,0,0,0,0,0,10,0,25,1000,570.2280709,False,17.5856715,BCC_B2#3,0.610725488,967.7589263,Hf30 Co25 Zr25 Al10 V10 
3806,20,40,0,5,0,0,10,0,0,0,0,0,0,0,0,25,1000,478.0344221,False,3.24400295,C14_LAVES,0.743125352,879.0102441,Co40 Zr25 Al20 Mn10 Cu5 
3808,0,0,0,0,0,10,15,0,0,35,0,5,0,0,0,35,1000,231.7252411,False,7.4073569,NIZR,0.49069193,848.6721491,Ni35 Zr35 Mn15 Hf10 Ta5 
3810,0,0,0,0,25,0,0,0,0,15,15,40,5,0,0,0,1000,539.9410769,False,8.278206719,C14_LAVES,0.365173147,940.4686924,Ta40 Fe25 Ni15 Si15 Ti5 
3811,0,0,35,0,0,0,0,0,10,15,0,30,0,0,0,10,1000,559.4561001,False,3.297856588,C15_LAVES,0.587007515,1098.618109,Cr35 Ta30 Ni15 Nb10 Zr10 
3813,0,0,0,35,35,0,10,0,0,5,0,0,0,15,0,0,1000,310.5615938,False,38.87616918,BCC_B2,0.587716545,996.202849,Cu35 Fe35 V15 Mn10 Ni5 
3814,0,0,0,0,0,0,0,0,5,40,0,0,20,10,0,25,1000,227.4053094,False,15.53216433,BCC_B2#2,0.859020712,1448.744011,Ni40 Zr25 Ti20 V10 Nb5 
3815,0,25,0,0,10,25,30,0,0,0,0,0,0,0,0,10,1000,65.35516228,False,22.52981406,C14_LAVES,0.90812771,1443.054584,Mn30 Co25 Hf25 Fe10 Zr10 
3816,25,0,0,0,0,10,0,0,0,15,0,40,10,0,0,0,1000,1024.172288,False,1.02467224,SIGMA,0.663882287,855.8018224,Ta40 Al25 Ni15 Hf10 Ti10 
3817,0,0,0,0,0,5,0,0,0,35,0,40,10,0,0,10,1000,437.7678075,False,6.011430198,C16_THETA,0.843584738,1174.389418,Ta40 Ni35 Ti10 Zr10 Hf5 
3820,0,0,0,25,0,0,35,0,0,15,0,0,25,0,0,0,1000,145.6047669,False,13.30071631,FCC_L12,0.555615216,772.5162583,Mn35 Cu25 Ti25 Ni15 
3822,0,0,0,0,0,40,0,0,0,15,15,30,0,0,0,0,1000,911.9542893,False,8.362293875,C16_THETA#3,0.738169159,1374.299576,Hf40 Ta30 Ni15 Si15 
3823,0,0,30,0,0,0,30,0,0,0,30,0,10,0,0,0,1000,785.8482895,False,7.496307247,CR3SI_A15,0.340380285,966.8909925,Cr30 Mn30 Si30 Ti10 
3824,0,0,0,40,0,5,15,0,25,0,0,0,15,0,0,0,1000,894.3282561,False,34.99463182,CU4TI3,0.236210015,756.5291322,Cu40 Nb25 Mn15 Ti15 Hf5 
3825,0,0,0,0,0,30,5,0,15,0,0,0,0,15,0,35,1000,301.3685607,False,53.21243044,BCC_B2#2,1.0,1335.170539,Zr35 Hf30 Nb15 V15 Mn5 
3826,0,0,0,0,0,0,0,0,15,35,0,30,20,0,0,0,1000,629.1270602,False,10.46839535,C16_THETA,0.46303687,806.9854259,Ni35 Ta30 Ti20 Nb15 
3827,0,0,0,20,0,25,0,0,30,0,0,0,25,0,0,0,1000,797.9854955,False,36.22198661,MOSI2_C11B,0.593966977,1017.524131,Nb30 Hf25 Ti25 Cu20 
3828,15,0,0,0,0,45,0,0,0,5,0,15,0,0,0,20,1000,774.2599835,False,3.003635867,HCP_A3,0.406927464,890.5006433,Hf45 Zr20 Al15 Ta15 Ni5 
3829,0,0,0,0,30,0,0,0,20,35,10,0,5,0,0,0,1000,453.9263831,False,9.076078815,C14_LAVES,0.617744748,905.6788242,Ni35 Fe30 Nb20 Si10 Ti5 
3830,5,0,0,0,10,20,0,0,25,40,0,0,0,0,0,0,1000,365.7059462,False,6.545699082,MU_PHASE,0.472914375,1045.513824,Ni40 Nb25 Hf20 Fe10 Al5 
3831,0,35,0,30,0,10,0,0,0,0,0,0,25,0,0,0,1000,433.4865428,False,21.38435779,BCC_B2#2,0.698284833,1044.543935,Co35 Cu30 Ti25 Hf10 
3832,40,0,0,0,0,0,0,0,0,0,10,15,35,0,0,0,1000,365.6582391,False,1.525290751,ALTI_L10,0.590852037,1531.409103,Al40 Ti35 Ta15 Si10 
3837,35,0,15,40,0,0,10,0,0,0,0,0,0,0,0,0,1000,363.0047231,False,0.422292679,BCC_B2#2,0.664707829,914.2475789,Cu40 Al35 Cr15 Mn10 
3838,0,20,10,0,20,30,0,0,0,0,0,0,20,0,0,0,1000,342.7948242,False,17.2094381,C14_LAVES,0.384026456,1125.370696,Hf30 Co20 Fe20 Ti20 Cr10 
3839,40,10,0,0,20,0,0,0,0,0,0,20,0,10,0,0,1000,295.2669482,False,2.203877886,C14_LAVES,0.57686572,1310.13364,Al40 Fe20 Ta20 Co10 V10 
3840,40,0,15,0,0,0,0,0,10,10,0,0,0,25,0,0,1000,229.7221139,False,0.610057622,BCC_B2,0.741254143,1357.565088,Al40 V25 Cr15 Nb10 Ni10 